<VTKFile type="UnstructuredGrid" version="1.0" byte_order="LittleEndian" header_type="UInt64">
  <UnstructuredGrid>
    <Piece NumberOfPoints="2211" NumberOfCells="3036">
      <PointData Scalars="rho_kernel">
        <DataArray type="Float32" Name="inter_rho1" format="ascii" RangeMin="-8.577420685196994e-22" RangeMax="1.0862522525939603e-22">
          -1.10617145e-23 -1.0920037e-23 -1.1696766e-23 -1.2048983e-23 -1.1895422e-23 -1.1633423e-23
          -1.11551274e-23 -1.1105435e-23 -1.0916958e-23 -1.1305537e-23 -1.1730298e-23 -1.2191603e-23
          -1.2166986e-23 -1.1959606e-23 -1.07007475e-23 -1.1163923e-23 -1.1241805e-23 -1.1126776e-23
          -1.1206141e-23 -1.1672783e-23 -1.2265741e-23 -1.2404719e-23 -1.2286399e-23 -1.045005e-23
          -1.0904917e-23 -1.1007374e-23 -1.09161144e-23 -1.0981728e-23 -1.14357505e-23 -1.2035075e-23
          -1.2207451e-23 -1.21136865e-23 -1.215943e-23 -1.2563828e-23 -1.2911168e-23 -1.2701928e-23
          -1.2392741e-23 -1.3535302e-23 -1.3997051e-23 -1.4378954e-23 -1.4085719e-23 -1.3693671e-23
          -1.5365755e-23 -1.5022108e-23 -1.4560623e-23 -1.22215696e-23 -1.2692819e-23 -1.31936616e-23
          -1.3140568e-23 -1.2903043e-23 -1.3796275e-23 -1.4374996e-23 -1.500448e-23 -1.493856e-23
          -1.4636923e-23 -1.5767474e-23 -1.6511496e-23 -1.6453587e-23 -1.6131775e-23 -1.6986406e-23
          -1.6906712e-23 -1.6525645e-23 -1.21964065e-23 -1.2755478e-23 -1.347934e-23 -1.3680836e-23
          -1.3564116e-23 -1.4086228e-23 -1.485423e-23 -1.5900124e-23 -1.6237843e-23 -1.610316e-23
          -1.588542e-23 -1.6926355e-23 -1.8438833e-23 -1.905859e-23 -1.8974235e-23 -1.6692745e-23
          -1.7882639e-23 -1.9646272e-23 -2.0400099e-23 -2.0341018e-23 -1.1963663e-23 -1.2533118e-23
          -1.3321836e-23 -1.3621009e-23 -1.3551562e-23 -1.4012147e-23 -1.4868962e-23 -1.6136645e-23
          -1.6735048e-23 -1.6730025e-23 -1.6094779e-23 -1.735918e-23 -1.9413157e-23 -2.0643064e-23
          -2.079654e-23 -1.7186537e-23 -1.871455e-23 -2.1317024e-23 -2.2975061e-23 -2.3294701e-23
          -1.1378238e-23 -1.1303036e-23 -1.2530427e-23 -1.3610654e-23 -1.4126257e-23 -1.4116395e-23
          -1.4753161e-23 -1.6559165e-23 -1.7650026e-23 -1.781901e-23 -1.5941238e-23 -1.8241552e-23
          -1.9806398e-23 -2.0108135e-23 -1.41109e-23 -1.3549016e-23 -1.3785426e-23 -1.3424597e-23
          -1.264057e-23 -1.2886903e-23 -1.2591529e-23 -1.2247994e-23 -1.147471e-23 -1.1748406e-23
          -1.1552231e-23 -1.1283821e-23 -1.3208124e-23 -1.3101406e-23 -1.4795525e-23 -1.5649623e-23
          -3.33581e-23 -3.4787958e-23 -3.1927104e-23 -4.06338e-23 -4.4620352e-23 -4.2257278e-23
          -4.7457427e-23 -2.8505845e-23 -3.8111546e-23 -4.2865704e-23 -3.997334e-23 -4.6398678e-23
          -1.8403737e-23 -1.8493973e-23 -1.8138547e-23 -2.1332397e-23 -2.1961269e-23 -2.1691944e-23
          -1.7592075e-23 -1.9032817e-23 -2.1257728e-23 -2.2372901e-23 -2.2389163e-23 -2.1058258e-23
          -2.4579437e-23 -2.6851418e-23 -2.7247956e-23 -2.7658107e-23 -3.142574e-23 -3.2379342e-23
          -1.8208131e-23 -2.0055553e-23 -2.3343016e-23 -2.5591646e-23 -2.6104775e-23 -1.9740214e-23
          -2.2269665e-23 -2.7192442e-23 -3.1383345e-23 -3.267976e-23 -3.0663768e-23 -3.7744546e-23
          -4.0552278e-23 -1.7189148e-23 -2.0223276e-23 -2.2530334e-23 -2.3118956e-23 -1.9317277e-23
          -2.4013827e-23 -2.8101952e-23 -2.953009e-23 -2.711244e-23 -3.4737383e-23 -3.8042397e-23
          -1.16136e-23 -1.1209463e-23 -1.0784669e-23 -1.1857595e-23 -1.1324107e-23 -1.0918991e-23
          -1.0276207e-23 -1.2067557e-23 -1.1367392e-23 -1.0688446e-23 -1.18634875e-23 -1.1142485e-23
          -1.246128e-23 -1.221226e-23 -1.1446532e-23 -1.3929056e-23 -1.392471e-23 -1.3331868e-23
          -1.2817404e-23 -1.5093566e-23 -1.5522236e-23 -1.5117858e-23 -1.4581908e-23 -1.6117616e-23
          -1.6039705e-23 -1.5541939e-23 -1.2890388e-23 -1.2444666e-23 -1.1517993e-23 -1.0905837e-23
          -1.4758426e-23 -1.4506314e-23 -1.3682215e-23 -1.3042364e-23 -1.6524924e-23 -1.6665856e-23
          -1.5855591e-23 -1.5117435e-23 -1.7057852e-23 -1.751019e-23 -1.7077938e-23 -1.6413384e-23
          -1.3381146e-23 -1.2631508e-23 -1.1519033e-23 -1.0844617e-23 -1.6021236e-23 -1.5347824e-23
          -1.407612e-23 -1.3238181e-23 -1.9093962e-23 -1.848362e-23 -1.697596e-23 -1.5982647e-23
          -2.065147e-23 -2.0333119e-23 -1.8799781e-23 -1.7636964e-23 -1.328321e-23 -1.242817e-23
          -1.12954224e-23 -1.0632427e-23 -1.65082e-23 -1.553795e-23 -1.4022967e-23 -1.3095024e-23
          -2.0641325e-23 -1.9458654e-23 -1.743186e-23 -1.6227756e-23 -2.3291642e-23 -2.2088561e-23
          -1.9667312e-23 -1.8198647e-23 -1.11097995e-23 -1.3893628e-23 -1.3023694e-23 -1.1775442e-23
          -1.7702853e-23 -1.6672269e-23 -1.485262e-23 -1.3749309e-23 -2.001497e-23 -1.8870208e-23
          -1.6862116e-23 -1.5604704e-23 -1.3669585e-23 -1.3907184e-23 -1.31390385e-23 -1.5336944e-23
          -1.3551718e-23 -1.2740161e-23 -1.488718e-23 -1.3134056e-23 -1.3301072e-23 -1.3388732e-23
          -1.2934657e-23 -1.24964616e-23 -1.2384413e-23 -1.2269612e-23 -1.1671077e-23 -1.1281574e-23
          -1.09384944e-23 -1.2023127e-23 -1.3659508e-23 -1.2203138e-23 -1.4140499e-23 -1.5210605e-23
          -1.2336561e-23 -1.4847396e-23 -1.26581055e-23 -1.628551e-23 -1.3790887e-23 -1.2161711e-23
          -1.4990236e-23 -1.26453725e-23 -1.67095e-23 -1.3978112e-23 -1.2649303e-23 -1.4249635e-23
          -3.0022774e-23 -3.1424e-23 -3.0773164e-23 -3.3075685e-23 -3.2589886e-23 -2.96035e-23
          -3.332454e-23 -3.377896e-23 -3.2480654e-23 -3.5094737e-23 -3.5956845e-23 -3.4714563e-23
          -3.784051e-23 -4.0759263e-23 -3.8505888e-23 -3.5553324e-23 -3.973255e-23 -4.4328253e-23
          -4.2181923e-23 -3.8942885e-23 -4.9056193e-23 -4.5702824e-23 -4.8283163e-23 -4.9542888e-23
          -4.300572e-23 -3.822483e-23 -5.2745503e-23 -5.6285926e-23 -4.9119548e-23 -4.327274e-23
          -6.6404866e-23 -6.0112873e-23 -5.298324e-23 -4.617464e-23 -4.64375e-23 -3.877596e-23
          -3.38651e-23 -5.1764734e-23 -5.4131755e-23 -4.503757e-23 -3.8955356e-23 -5.913199e-23
          -6.876948e-23 -5.783422e-23 -4.8973186e-23 -1.6899524e-23 -1.7705513e-23 -1.7579718e-23
          -1.715069e-23 -2.0402979e-23 -2.188623e-23 -2.1915736e-23 -2.1200815e-23 -2.7139305e-23
          -2.791989e-23 -2.7111146e-23 -1.8814367e-23 -1.9357301e-23 -1.8804253e-23 -1.8192871e-23
          -2.2906489e-23 -2.4144603e-23 -2.3405369e-23 -2.2395589e-23 -2.7368898e-23 -3.002154e-23
          -2.994893e-23 -2.8603147e-23 -2.2832019e-23 -2.264602e-23 -2.1071126e-23 -1.9783122e-23
          -2.8279228e-23 -2.845821e-23 -2.6178002e-23 -2.4446755e-23 -3.4569198e-23 -3.6262232e-23
          -3.3970723e-23 -3.1270443e-23 -2.6276351e-23 -2.5114823e-23 -2.2333321e-23 -2.0541132e-23
          -3.3427113e-23 -3.2313358e-23 -2.8502557e-23 -2.6048681e-23 -4.2788264e-23 -4.288132e-23
          -3.7271147e-23 -3.3367734e-23 -2.3159139e-23 -2.1778465e-23 -1.9046313e-23 -1.7550185e-23
          -3.0154173e-23 -2.8867365e-23 -2.5196353e-23 -2.2755452e-23 -4.0050424e-23 -3.9291262e-23
          -3.2946306e-23 -2.9148814e-23 -1.8155943e-23 -1.7135824e-23 -1.8169844e-23 -1.7011276e-23
          -1.7790994e-23 -1.6654376e-23 -2.7763792e-23 -2.2202667e-23 -2.944832e-23 -2.906924e-23
          -2.2870745e-23 -3.1115987e-23 -3.1368953e-23 -2.4024275e-23 -3.4154096e-23 -2.6243367e-23
          -3.3178174e-23 -2.4953521e-23 -3.7051225e-23 -2.742485e-23 -4.4304637e-23 -2.90107e-23
          -2.1670752e-23 -3.303162e-23 -2.3881996e-23 -4.0137593e-23 -1.9940327e-23 -2.0140214e-23
          -1.9663049e-23 -2.3852893e-23 -2.4627587e-23 -2.41034e-23 -2.9718306e-23 -2.9380743e-23
          -1.6044298e-23 -1.9608007e-23 -2.4590983e-23 -2.0048423e-23 -1.69209e-23 -2.0593971e-23
          -1.7192247e-23 -2.5748223e-23 -2.0690777e-23 -1.816548e-23 -1.5172138e-23 -2.2270398e-23
          -1.8243832e-23 -2.7725943e-23 -2.1783968e-23 -1.8728806e-23 -1.5426397e-23 -2.338426e-23
          -1.8730044e-23 -2.932093e-23 -2.2635722e-23 -1.6043692e-23 -2.0215654e-23 -1.602093e-23
          -2.5557396e-23 -1.9683648e-23 -1.8256944e-23 -2.2055697e-23 -2.6757436e-23 -1.4645088e-23
          -1.3700857e-23 -1.4684086e-23 -1.3617797e-23 -1.464457e-23 -1.5678577e-23 -1.5661156e-23
          -1.1361014e-23 -1.12905015e-23 -1.2518655e-23 -1.3616063e-23 -1.4139212e-23 -1.4121087e-23
          -1.4816338e-23 -1.6671389e-23 -1.7782581e-23 -1.796127e-23 -1.6020544e-23 -1.8380682e-23
          -1.9983891e-23 -2.0288575e-23 -1.1076407e-23 -1.1293607e-23 -1.1227951e-23 -1.24482424e-23
          -1.3563963e-23 -1.4096099e-23 -1.4068107e-23 -1.485558e-23 -1.6784418e-23 -1.7936876e-23
          -1.8124737e-23 -1.61108e-23 -1.8591858e-23 -2.0253784e-23 -2.0580576e-23 -1.09448755e-23
          -1.1164332e-23 -1.1097437e-23 -1.2327032e-23 -1.3445883e-23 -1.398288e-23 -1.3958966e-23
          -1.4778066e-23 -1.674043e-23 -1.7933177e-23 -1.8114077e-23 -1.6098045e-23 -1.8684319e-23
          -2.040535e-23 -2.076498e-23 -1.4932662e-23 -1.6014591e-23 -1.617124e-23 -1.673126e-23
          -1.8296912e-23 -1.862928e-23 -1.7296367e-23 -2.041248e-23 -2.2837719e-23 -2.3454068e-23
          -1.9534613e-23 -2.4492828e-23 -2.8792625e-23 -3.0317853e-23 -2.7684496e-23 -3.5959666e-23
          -3.960978e-23 -2.922169e-23 -3.9873202e-23 -4.519986e-23 -1.7425481e-23 -2.0651012e-23
          -2.3216104e-23 -2.3868549e-23 -1.981338e-23 -2.5206763e-23 -2.99243e-23 -3.1621912e-23
          -2.8610622e-23 -3.778557e-23 -4.1985058e-23 -3.0268915e-23 -4.2675772e-23 -4.897891e-23
          -1.7453465e-23 -2.0760487e-23 -2.3356502e-23 -2.4030582e-23 -1.9912287e-23 -2.5574443e-23
          -3.072908e-23 -3.2566434e-23 -2.9352053e-23 -3.9007127e-23 -4.3624993e-23 -3.096832e-23
          -4.4697998e-23 -5.1828704e-23 -1.861679e-23 -2.0934103e-23 -2.1547224e-23 -2.2968375e-23
          -2.7772555e-23 -2.9468786e-23 -2.6581918e-23 -3.5350773e-23 -3.9644154e-23 -2.799383e-23
          -4.0741435e-23 -4.7485933e-23 -4.1975794e-23 -4.9361463e-23 -4.5479497e-23 -5.464157e-23
          -4.8419225e-23 -5.9159734e-23 -4.4527326e-23 -5.47492e-23 -4.5222783e-23 -3.842679e-23
          -4.45661e-23 -4.2072565e-23 -1.1103375e-23 -1.3885274e-23 -1.2999696e-23 -1.17624486e-23
          -1.7844106e-23 -1.679293e-23 -1.4922926e-23 -1.3776e-23 -2.0191223e-23 -1.9018417e-23
          -1.7007675e-23 -1.5726983e-23 -1.1043094e-23 -1.3827107e-23 -1.2935602e-23 -1.1711147e-23
          -1.7982012e-23 -1.6879834e-23 -1.4953068e-23 -1.3766194e-23 -2.0493014e-23 -1.9263827e-23
          -1.7177593e-23 -1.5829245e-23 -1.0909381e-23 -1.3729561e-23 -1.2838276e-23 -1.1606322e-23
          -1.7932997e-23 -1.6794685e-23 -1.4869433e-23 -1.3684463e-23 -2.0681866e-23 -1.9393342e-23
          -1.7136121e-23 -1.5744417e-23 -1.6000254e-23 -1.4978801e-23 -1.3259717e-23 -1.854911e-23
          -1.7358165e-23 -1.527262e-23 -1.4028287e-23 -2.349427e-23 -2.2033139e-23 -1.9192497e-23
          -1.7690034e-23 -3.0984853e-23 -2.9652398e-23 -2.5755938e-23 -2.315011e-23 -4.1870023e-23
          -4.097727e-23 -3.3941138e-23 -2.985097e-23 -4.8868646e-23 -4.922908e-23 -4.0529894e-23
          -3.512683e-23 -2.3918294e-23 -2.2362582e-23 -1.9445155e-23 -1.7898664e-23 -3.2350422e-23
          -3.0945792e-23 -2.653402e-23 -2.3682174e-23 -4.4652837e-23 -4.3558274e-23 -3.560467e-23
          -3.1031614e-23 -5.3269006e-23 -5.3755336e-23 -4.330818e-23 -3.7116155e-23 -2.4104469e-23
          -2.2541331e-23 -1.964135e-23 -1.7998022e-23 -3.3343914e-23 -3.1820185e-23 -2.685593e-23
          -2.3892489e-23 -4.658299e-23 -4.5445276e-23 -3.7016e-23 -3.2015926e-23 -5.658107e-23
          -5.702991e-23 -4.539177e-23 -3.8577507e-23 -2.1626529e-23 -2.0246047e-23 -1.7646923e-23
          -1.6125619e-23 -3.018086e-23 -2.8726723e-23 -2.407361e-23 -2.141563e-23 -4.241313e-23
          -4.1445742e-23 -3.373416e-23 -2.905878e-23 -5.185274e-23 -5.2325696e-23 -4.1427933e-23
          -3.500806e-23 -5.562001e-23 -5.837595e-23 -4.7602038e-23 -4.084051e-23 -6.483479e-23
          -7.695753e-23 -6.321776e-23 -5.2437976e-23 -6.255039e-23 -6.604495e-23 -5.1933493e-23
          -4.4005495e-23 -7.5616716e-23 -9.279089e-23 -7.351376e-23 -5.875059e-23 -6.8592623e-23
          -7.2653995e-23 -5.5251546e-23 -4.6458824e-23 -8.63132e-23 -1.0970424e-22 -8.3846587e-23
          -6.457859e-23 -6.383331e-23 -6.758491e-23 -5.0674342e-23 -4.2556755e-23 -8.2373077e-23
          -1.0678409e-22 -7.9892545e-23 -6.032964e-23 -9.7796835e-23 -1.26496126e-23 -1.4315077e-23
          -1.2610638e-23 -1.4343364e-23 -1.2523289e-23 -1.4252367e-23 -1.6162214e-23 -2.0455187e-23
          -1.6113877e-23 -2.6088053e-23 -1.997865e-23 -2.973735e-23 -2.2030217e-23 -1.6292344e-23
          -2.0770693e-23 -1.6234436e-23 -2.699383e-23 -2.0395519e-23 -3.0869535e-23 -2.260527e-23
          -1.6282578e-23 -2.089117e-23 -1.6286223e-23 -2.770227e-23 -2.0581248e-23 -3.171657e-23
          -2.3018433e-23 -1.4543582e-23 -1.8718617e-23 -2.5062917e-23 -1.8459015e-23 -2.870217e-23
          -2.0762352e-23 -3.4289714e-23 -2.4302626e-23 -4.2102125e-23 -3.6334242e-23 -2.4928565e-23
          -4.5536803e-23 -3.7802167e-23 -2.5366009e-23 -4.8523727e-23 -3.4377138e-23 -2.2885563e-23
          -4.4704987e-23 -1.2477464e-23 -1.2464059e-23 -1.499699e-23 -1.6135279e-23 -1.6295284e-23
          -1.6929932e-23 -1.8606881e-23 -1.8957025e-23 -1.23265614e-23 -1.23225706e-23 -1.4871486e-23
          -1.6014858e-23 -1.6185876e-23 -1.6867586e-23 -1.8655353e-23 -1.9024315e-23 -1.1851892e-23
          -1.182899e-23 -1.442443e-23 -1.5546964e-23 -1.5724019e-23 -1.6387208e-23 -1.8081676e-23
          -1.8469436e-23 -1.4042428e-23 -1.513688e-23 -1.531836e-23 -1.5912094e-23 -1.7531301e-23
          -1.7905251e-23 -1.5765898e-23 -1.8962246e-23 -2.1373662e-23 -2.2033732e-23 -2.3423459e-23
          -2.8755798e-23 -3.064346e-23 -2.7602622e-23 -3.7150843e-23 -4.200732e-23 -2.89918e-23
          -4.3210796e-23 -5.1076364e-23 -1.5743221e-23 -1.9132505e-23 -2.176257e-23 -2.2449689e-23
          -1.8195968e-23 -2.3707069e-23 -2.9314242e-23 -3.1446176e-23 -2.8559463e-23 -3.939164e-23
          -4.4711374e-23 -3.017223e-23 -4.550543e-23 -5.428348e-23 -1.528648e-23 -1.8544506e-23
          -2.1197486e-23 -2.190463e-23 -1.7832515e-23 -2.3333792e-23 -2.8681234e-23 -3.072381e-23
          -2.8066705e-23 -3.907713e-23 -4.4409022e-23 -3.005459e-23 -4.496672e-23 -5.147513e-23
          -1.489146e-23 -1.8006582e-23 -2.0536689e-23 -2.1244781e-23 -1.742609e-23 -2.2765518e-23
          -2.790964e-23 -2.976855e-23 -2.7389427e-23 -3.7888046e-23 -4.315286e-23 -2.9388085e-23
          -4.3300282e-23 -4.7193487e-23 -4.7941207e-23 -6.0552875e-23 -4.084517e-23 -5.1098916e-23
          -6.646251e-23 -4.5464048e-23 -5.6280606e-23 -3.06218e-23 -5.0551892e-23 -6.7295174e-23
          -5.2361226e-23 -7.5296445e-23 -5.1465696e-23 -5.449998e-23 -3.016615e-23 -4.9326116e-23
          -6.6635863e-23 -5.1644657e-23 -6.9547744e-23 -1.9930274e-23 -5.358221e-23 -2.020208e-23
          -5.8535063e-23 -3.856592e-23 -4.5916883e-23 -4.3542733e-23 -4.9286796e-23 -1.2253309e-23
          -1.6134755e-23 -1.5060872e-23 -1.3273706e-23 -1.886081e-23 -1.7645457e-23 -1.5393335e-23
          -1.403521e-23 -1.2119576e-23 -1.6031886e-23 -1.4898362e-23 -1.31113005e-23 -1.8963022e-23
          -1.7545472e-23 -1.5174143e-23 -1.3859993e-23 -1.5520586e-23 -1.4429273e-23 -1.27339e-23
          -1.8333075e-23 -1.6866671e-23 -1.3428694e-23 -1.512313e-23 -1.408199e-23 -1.2380136e-23
          -1.7705546e-23 -1.6429439e-23 -2.2120712e-23 -2.0700505e-23 -1.7943018e-23 -1.6311462e-23
          -3.143959e-23 -2.9651764e-23 -2.454418e-23 -2.179596e-23 -4.525339e-23 -4.4725804e-23
          -3.5808602e-23 -3.0434314e-23 -5.6289934e-23 -5.6037094e-23 -4.4027892e-23 -3.7059284e-23
          -2.251636e-23 -2.1113332e-23 -1.8024478e-23 -1.6206567e-23 -3.229207e-23 -2.9986405e-23
          -2.495876e-23 -2.2163591e-23 -4.8963208e-23 -4.9392973e-23 -3.7680844e-23 -3.1604258e-23
          -6.0236276e-23 -6.46604e-23 -4.949263e-23 -3.8749166e-23 -2.2175977e-23 -2.0564176e-23
          -1.7422864e-23 -1.5676768e-23 -3.1158217e-23 -2.9413616e-23 -2.4700401e-23 -2.1746234e-23
          -4.987982e-23 -4.765655e-23 -3.587911e-23 -3.1289676e-23 -6.695921e-23 -4.9080076e-23
          -3.8095276e-23 -2.1568612e-23 -1.9878252e-23 -1.683456e-23 -1.5224754e-23 -3.011731e-23
          -2.8761222e-23 -2.4078733e-23 -2.1140071e-23 -4.8379303e-23 -4.417985e-23 -3.4267635e-23
          -3.083795e-23 -4.881977e-23 -3.64697e-23 -7.143543e-23 -7.5934476e-23 -5.492279e-23
          -4.537431e-23 -9.814833e-23 -1.3488545e-22 -9.4140256e-23 -6.8044876e-23 -7.097034e-23
          -7.822373e-23 -7.921043e-23 -5.823169e-23 -4.8837596e-23 -1.219671e-22 -1.8227944e-22
          -1.1272888e-22 -7.6422775e-23 -1.1650722e-22 -3.040295e-22 -2.0884764e-22 -9.0497763e-23
          -7.3741405e-23 -8.5476544e-23 -4.8108685e-23 -1.3003419e-22 -1.7473474e-22 -1.013206e-22
          -7.792821e-23 -1.13591e-22 -5.009039e-22 -3.0997192e-22 -4.9513483e-23 -8.9070954e-23
          -6.635517e-23 -1.0506966e-22 -4.381571e-23 -1.261437e-22 -1.2363695e-22 -7.47135e-23
          -7.9129375e-23 -5.9561654e-22 -3.5968046e-22 1.0862523e-22 9.037567e-23 -6.437912e-23
          -8.558052e-23 -8.022298e-23 -7.553623e-23 -1.5865482e-22 -5.41054e-23 -1.6141166e-22
          -1.4607303e-23 -1.9019908e-23 -2.5949215e-23 -1.8628663e-23 -2.9896197e-23 -2.1305183e-23
          -1.4420556e-23 -1.9318773e-23 -2.6506907e-23 -1.8625932e-23 -3.1338206e-23 -2.1676995e-23
          -1.397417e-23 -1.8990359e-23 -2.5972512e-23 -1.8222053e-23 -3.1467264e-23 -2.121824e-23
          -1.3647216e-23 -1.8529953e-23 -2.5353084e-23 -1.7897602e-23 -3.1198382e-23 -2.0692027e-23
          -3.5973203e-23 -2.3488832e-23 -4.8258837e-23 -3.7610906e-23 -2.4282775e-23 -5.275147e-23
          -3.6936598e-23 -2.4467816e-23 -5.38367e-23 -7.616321e-23 -3.552857e-23 -2.4172224e-23
          -5.32565e-23 -7.245569e-23 -2.4191595e-23 -7.769763e-23 -8.928947e-23 -4.2335107e-23
          -4.8591175e-23 -9.13624e-23 -4.3779694e-23 -5.0237433e-23 -1.0731718e-23 -1.07503424e-23
          -1.0885978e-23 -1.10093254e-23 -1.10965474e-23 -1.0802616e-23 -1.0864142e-23 -1.07544784e-23
          -1.0952574e-23 -1.13476284e-23 -1.13098704e-23 -1.1437473e-23 -1.05143775e-23 -1.0481805e-23
          -1.0547023e-23 -1.1194922e-23 -1.0796792e-23 -1.0807525e-23 -1.0777202e-23 -1.1257665e-23
          -1.05470806e-23 -1.0220063e-23 -1.0129203e-23 -1.0147373e-23 -1.0614586e-23 -1.0934999e-23
          -1.1083465e-23 -1.0353118e-23 -1.0000647e-23 -9.8730565e-24 -9.86785e-24 -1.0396747e-23
          -1.0722912e-23 -1.039157e-23 -1.0323838e-23 -1.0249396e-23 -1.0205773e-23 -1.083975e-23
          -1.0855111e-23 -1.0796079e-23 -1.0739107e-23 -1.0657322e-23 -1.0602612e-23 -1.10156915e-23
          -1.0958342e-23 -1.1641856e-23 -1.1975187e-23 -1.3714798e-23 -1.2591123e-23 -1.3391796e-23
          -1.4779495e-23 -1.5112074e-23 -1.5170597e-23 -1.37435e-23 -1.5416207e-23 -1.5041892e-23
          -1.4561972e-23 -1.3556385e-23 -1.6065316e-23 -1.4175586e-23 -1.5580729e-23 -1.5375349e-23
          -1.1892792e-23 -1.4819634e-23 -1.3340468e-23 -1.5204939e-23 -1.516447e-23 -1.6067049e-23
          -1.6235897e-23 -1.6406133e-23 -1.6407897e-23 -1.1681775e-23 -1.4875635e-23 -1.6108406e-23
          -1.132849e-23 -1.1404293e-23 -1.1295032e-23 -1.1261333e-23 -1.243211e-23 -1.3810287e-23
          -1.4760484e-23 -1.2237433e-23 -1.12349144e-23 -1.134017e-23 -1.2393948e-23 -1.3783976e-23
          -1.4720875e-23 -1.4642134e-23 -1.3547974e-23 -1.4040063e-23 -1.3626797e-23 -1.3979576e-23
          -1.409217e-23 -1.4097287e-23 -1.3572435e-23 -1.3426592e-23 -1.2373303e-23 -1.2571705e-23
          -1.3523876e-23 -1.30350595e-23 -1.3009657e-23 -1.30302e-23 -1.1805042e-23 -1.1363909e-23
          -1.1452696e-23 -1.1680399e-23 -1.2337532e-23 -1.11934124e-23 -1.0899766e-23 -1.0930958e-23
          -1.1054367e-23 -1.13352725e-23 -1.31504115e-23 -1.2342069e-23 -1.30687155e-23 -1.3811135e-23
          -1.4716626e-23 -1.5570297e-23 -1.1568509e-23 -1.2623986e-23 -1.2561101e-23 -1.4214417e-23
          -1.4088273e-23 -1.5365892e-23 -1.528229e-23 -1.6073087e-23 -3.0900332e-23 -3.0334867e-23
          -2.959787e-23 -3.100359e-23 -3.0303864e-23 -2.7961058e-23 -3.3574428e-23 -3.5501432e-23
          -3.7524315e-23 -3.7756246e-23 -3.7455447e-23 -2.891182e-23 -3.200188e-23 -3.6000434e-23
          -4.2362825e-23 -4.8417168e-23 -2.5447192e-23 -2.8803053e-23 -3.1326386e-23 -4.0367688e-23
          -4.9145817e-23 -5.4182817e-23 -1.7536796e-23 -1.7217009e-23 -1.6896995e-23 -1.679208e-23
          -2.126324e-23 -2.0621512e-23 -2.0224704e-23 -1.9998675e-23 -1.7410566e-23 -1.7702362e-23
          -1.7648926e-23 -2.1269138e-23 -2.0881606e-23 -2.139929e-23 -2.4197216e-23 -2.458007e-23
          -2.6539338e-23 -2.6153061e-23 -2.5685948e-23 -2.5629851e-23 -1.7793222e-23 -1.7357488e-23
          -2.0815089e-23 -1.9733972e-23 -2.1160952e-23 -2.622124e-23 -1.5840942e-23 -1.6592364e-23
          -1.9744359e-23 -1.9711963e-23 -1.9723684e-23 -2.3279176e-23 -2.4619462e-23 -1.5748483e-23
          -1.8499719e-23 -1.9702691e-23 -2.2369184e-23 -1.0703307e-23 -1.0650808e-23 -1.073216e-23
          -1.0632e-23 -1.0708729e-23 -1.07137716e-23 -1.0803179e-23 -1.0460746e-23 -1.04657806e-23
          -1.04578675e-23 -1.0278719e-23 -1.0615009e-23 -1.0663152e-23 -1.08760095e-23 -1.0128171e-23
          -1.02138444e-23 -1.0225695e-23 -1.00272236e-23 -1.043408e-23 -1.0453777e-23 -1.0689525e-23
          -9.883552e-24 -1.0016864e-23 -1.0142179e-23 -1.00172745e-23 -1.0533556e-23 -1.0250308e-23
          -1.0386057e-23 -1.0285702e-23 -1.0527915e-23 -1.095556e-23 -1.0981374e-23 -1.08533e-23
          -1.1054921e-23 -1.09009044e-23 -1.1287311e-23 -1.5249948e-23 -1.5264205e-23 -1.5266636e-23
          -1.5135372e-23 -1.5432923e-23 -1.5076219e-23 -1.08860636e-23 -1.07419576e-23 -1.08133945e-23
          -1.06330625e-23 -1.0566246e-23 -1.0560538e-23 -1.1449593e-23 -1.09768946e-23 -1.1054899e-23
          -1.1473676e-23 -1.1559293e-23 -1.17464915e-23 -1.3085999e-23 -1.3304182e-23 -1.3178054e-23
          -1.5075731e-23 -1.20190106e-23 -1.26658016e-23 -1.2885085e-23 -1.4874605e-23 -1.18526635e-23
          -1.2572556e-23 -1.2647793e-23 -1.2584119e-23 -1.4620137e-23 -1.4782357e-23 -1.1975585e-23
          -1.2480165e-23 -1.4025797e-23 -1.466536e-23 -1.5423114e-23 -1.5115968e-23 -1.21437e-23
          -1.1559955e-23 -1.15403306e-23 -1.1691059e-23 -1.1352346e-23 -1.2013772e-23 -1.1305809e-23
          -1.10449236e-23 -1.1120266e-23 -1.125507e-23 -1.103628e-23 -1.0854004e-23 -1.07279656e-23
          -1.0764467e-23 -1.1708378e-23 -1.18468946e-23 -1.17426695e-23 -1.2965601e-23 -1.2284473e-23
          -1.14577e-23 -1.1769283e-23 -1.2892038e-23 -1.2648295e-23 -1.364702e-23 -1.3465e-23
          -1.1098426e-23 -1.1532382e-23 -1.2625196e-23 -1.2640923e-23 -1.3287015e-23 -1.0850883e-23
          -1.1260102e-23 -1.1330939e-23 -1.1967084e-23 -1.2232546e-23 -1.22479404e-23 -1.2828746e-23
          -1.2839042e-23 -1.2208239e-23 -1.23432356e-23 -1.2814699e-23 -2.8172012e-23 -2.9594297e-23
          -3.06308e-23 -3.2163964e-23 -3.3796647e-23 -3.3878083e-23 -3.398446e-23 -2.9604725e-23
          -3.4104265e-23 -3.5690828e-23 -3.5337185e-23 -3.8162535e-23 -3.7338506e-23 -4.9024465e-23
          -4.5592424e-23 -4.0088444e-23 -4.732101e-23 -4.905562e-23 -5.730422e-23 -4.9055498e-23
          -4.5705288e-23 -4.5459665e-23 -5.6339726e-23 -6.0052276e-23 -5.774359e-23 -6.613172e-23
          -6.1308944e-23 -5.400037e-23 -5.803434e-23 -6.890991e-23 -6.116751e-23 -5.141563e-23
          -1.7068487e-23 -2.263263e-23 -2.0647626e-23 -2.4517114e-23 -2.4677481e-23 -2.8102703e-23
          -1.7798195e-23 -1.7027974e-23 -1.8439004e-23 -1.6608777e-23 -1.732756e-23 -1.9581363e-23
          -1.5795838e-23 -1.7893651e-23 -1.9683526e-23 -1.561496e-23 -1.7662367e-23 -2.2106153e-23
          -2.2258842e-23 -2.6329714e-23 -3.0054723e-23 -2.1644385e-23 -2.3843996e-23 -2.5636749e-23
          -3.246601e-23 -2.5192904e-23 -2.0757893e-23 -3.8290217e-23 -2.4208904e-23 -2.6755218e-23
          -4.1155836e-23 -1.9934384e-23 -2.2748538e-23 -2.947501e-23 -3.7363845e-23 -4.4977176e-23
          -1.928006e-23 -2.1224396e-23 -2.581197e-23 -3.1107578e-23 -4.183993e-23 -1.9246026e-23
          -2.0323002e-23 -2.1620902e-23 -2.1638575e-23 -2.2852603e-23 -2.414481e-23 -2.711327e-23
          -2.5897008e-23 -2.586093e-23 -2.839285e-23 -3.0886344e-23 -3.100796e-23 -1.5048577e-23
          -1.6727228e-23 -1.7753337e-23 -1.66777e-23 -1.9709524e-23 -2.0380987e-23 -1.4498831e-23
          -1.4669626e-23 -1.447304e-23 -1.6333234e-23 -1.9284478e-23 -1.4032296e-23 -1.5828377e-23
          -1.860376e-23 -1.3540917e-23 -1.3508124e-23 -1.5292608e-23 -1.7946117e-23 -1.3494723e-23
          -1.4001494e-23 -1.4995462e-23 -1.7229363e-23 -1.6666591e-23 -1.9473394e-23 -1.9186304e-23
          -2.3279711e-23 -2.303411e-23 -2.763696e-23 -1.2309135e-23 -1.4277325e-23 -1.3690176e-23
          -1.3701793e-23 -1.4635686e-23 -1.4791071e-23 -1.3159467e-23 -1.2145569e-23 -1.3513348e-23
          -1.4429424e-23 -1.2790708e-23 -1.1976829e-23 -1.3310622e-23 -1.3377882e-23 -1.4202675e-23
          -1.4298137e-23 -1.5624233e-23 -1.5658584e-23 -1.8392262e-23 -1.5437498e-23 -1.6056174e-23
          -1.8173983e-23 -1.5192631e-23 -1.648412e-23 -1.527657e-23 -1.7902466e-23 -1.09179785e-23
          -1.0864908e-23 -1.1051863e-23 -1.0759953e-23 -1.0714639e-23 -1.0903918e-23 -1.06279995e-23
          -1.05877235e-23 -1.20760034e-23 -1.1181657e-23 -1.1230838e-23 -1.10934874e-23 -1.10629806e-23
          -1.1824514e-23 -1.0921902e-23 -1.16241305e-23 -1.0926805e-23 -1.0912319e-23 -1.0846914e-23
          -1.20552e-23 -1.2355676e-23 -1.2498354e-23 -1.2449172e-23 -1.3666285e-23 -1.4690053e-23
          -1.3137538e-23 -1.2569882e-23 -1.2467179e-23 -1.2466289e-23 -1.2441898e-23 -1.3909121e-23
          -1.4818426e-23 -2.0093494e-23 -2.2370944e-23 -2.5400925e-23 -2.9667336e-23 -2.0741491e-23
          -2.2313928e-23 -2.5238974e-23 -3.1085392e-23 -1.5707806e-23 -2.1303956e-23 -1.8249589e-23
          -2.2147466e-23 -2.4907991e-23 -3.2172973e-23 -1.5742679e-23 -1.5692712e-23 -1.8293225e-23
          -2.1753359e-23 -2.4599627e-23 -2.8781593e-23 -3.1800936e-23 -4.2404076e-23 -5.259916e-23
          -5.8365136e-23 -3.2365767e-23 -4.6034846e-23 -5.913938e-23 -6.454752e-23 -3.2500697e-23
          -4.9093026e-23 -6.526554e-23 -6.9256e-23 -3.9642507e-23 -4.665218e-23 -4.6185178e-23
          -3.0573084e-23 -4.5169087e-23 -6.139099e-23 -6.337241e-23 -4.5647938e-23 -4.194665e-23
          -3.915339e-23 -5.12385e-23 -4.5961286e-23 -3.805702e-23 -4.2265893e-23 -3.6592074e-23
          -3.8264238e-23 -3.7712483e-23 -4.4226127e-23 -4.7024103e-23 -3.7302345e-23 -3.6688362e-23
          -4.1487388e-23 -4.5529404e-23 -1.086232e-23 -1.0715266e-23 -1.0591566e-23 -1.0892819e-23
          -1.0963706e-23 -1.1374846e-23 -1.1483732e-23 -1.1645478e-23 -1.07547916e-23 -1.0819907e-23
          -1.12101615e-23 -1.1346844e-23 -1.1476735e-23 -1.0632939e-23 -1.0747519e-23 -1.0702167e-23
          -1.1069725e-23 -1.2309592e-23 -1.18589515e-23 -1.1211349e-23 -1.135769e-23 -1.1329201e-23
          -1.26182925e-23 -1.24234154e-23 -1.2251725e-23 -1.2481774e-23 -1.2940988e-23 -1.302362e-23
          -1.3163127e-23 -1.3373056e-23 -6.317686e-23 -7.7091034e-23 -6.716703e-23 -5.522392e-23
          -7.2476084e-23 -9.45713e-23 -8.059632e-23 -6.3280074e-23 -8.177966e-23 -1.1792788e-22
          -9.829528e-23 -7.254218e-23 -7.7845444e-23 -1.1960185e-22 -9.902434e-23 -7.381323e-23
          -6.4355405e-23 -9.833871e-23 -9.750429e-23 -8.5709434e-23 -5.9836393e-23 -9.6151946e-23
          -9.620495e-23 -1.010508e-22 -8.255478e-23 -1.2093001e-23 -1.2262106e-23 -1.27414605e-23
          -1.1898854e-23 -1.21103465e-23 -1.25887425e-23 -1.17297866e-23 -1.1957048e-23 -1.21699015e-23
          -1.2429576e-23 -1.3113335e-23 -1.3856105e-23 -1.3417585e-23 -1.375608e-23 -1.489584e-23
          -1.7137238e-23 -1.9258647e-23 -1.3275612e-23 -1.340755e-23 -1.4713132e-23 -1.6967537e-23
          -1.9062541e-23 -1.31290065e-23 -1.31742225e-23 -1.452471e-23 -1.5134637e-23 -1.6773403e-23
          -1.8778769e-23 -1.404054e-23 -1.5393747e-23 -1.6685502e-23 -1.7511963e-23 -1.9566786e-23
          -2.1180743e-23 -2.666826e-23 -3.183059e-23 -4.3973032e-23 -2.1057324e-23 -2.8305576e-23
          -3.255738e-23 -4.8266647e-23 -2.0819617e-23 -3.0052092e-23 -3.257495e-23 -5.2841128e-23
          -2.0998042e-23 -2.5982306e-23 -3.0010613e-23 -5.101677e-23 -1.5621222e-23 -1.5273961e-23
          -1.8008238e-23 -1.4789214e-23 -1.7442734e-23 -1.4480886e-23 -1.7022752e-23 -1.9920691e-23
          -1.9057594e-23 -1.2355695e-23 -1.2252783e-23 -1.2413699e-23 -1.2866891e-23 -1.3767636e-23
          -1.4714813e-23 -1.5351574e-23 -1.1994218e-23 -1.18862855e-23 -1.2146357e-23 -1.2473796e-23
          -1.346327e-23 -1.4456146e-23 -1.4654937e-23 -1.1704894e-23 -1.1607321e-23 -1.1772189e-23
          -1.2176921e-23 -1.16327535e-23 -1.1531397e-23 -1.1663524e-23 -1.3068178e-23 -1.4099887e-23
          -1.4365949e-23 -1.20408045e-23 -1.1574162e-23 -1.1504604e-23 -1.2814884e-23 -1.3841921e-23
          -1.420978e-23 -1.6635418e-23 -1.8269985e-23 -1.8146391e-23 -2.1831194e-23 -2.4796579e-23
          -2.9763933e-23 -1.8335324e-23 -2.1667469e-23 -2.459452e-23 -3.069908e-23 -1.8125708e-23
          -2.1025559e-23 -2.303118e-23 -5.9738726e-23 -1.7765627e-23 -2.049859e-23 -2.0166156e-23
          -5.6293304e-23 -3.1438767e-23 -4.8150378e-23 -6.754635e-23 -7.226954e-23 -4.1994004e-23
          -3.1709447e-23 -4.402285e-23 -5.4263085e-23 -4.640025e-23 -5.75441e-23 -3.1855544e-23
          -3.0663348e-23 -5.1860596e-23 -7.564052e-23 -5.1981986e-23 -7.613991e-23 -8.2158185e-23
          -4.662448e-23 -4.8176168e-23 -5.651979e-23 -1.1004709e-22 -2.908347e-23 -5.6509975e-23
          -5.5861954e-23 -2.9877207e-23 -3.0646792e-23 -3.4459028e-23 -7.5219295e-23 -1.9926972e-23