<VTKFile type="UnstructuredGrid" version="1.0" byte_order="LittleEndian" header_type="UInt64">
  <UnstructuredGrid>
    <Piece NumberOfPoints="1279" NumberOfCells="1978">
      <PointData Scalars="rho_kernel">
        <DataArray type="Float32" Name="inter_rho1" format="ascii" RangeMin="-3.617341244641399e-23" RangeMax="9.101484271709234e-24">
          -8.668458e-25 -2.5789105e-23 -2.4852004e-23 -2.2213446e-23 -1.8659124e-23 -1.658155e-23
          -2.1835605e-23 -2.1292274e-23 -1.7736591e-23 -1.3233812e-23 -1.0881167e-23 -3.077739e-23
          -2.8589244e-23 -2.7004397e-23 -2.8301953e-23 -2.8562672e-23 -2.732492e-23 -2.4819145e-23
          -2.3064082e-23 -5.6507996e-24 -7.431268e-24 -1.149024e-23 -1.5603853e-23 -3.4970334e-24
          -4.8654862e-24 -8.350998e-24 -1.26573466e-23 -1.5097851e-23 -3.9666044e-24 -7.7404886e-24
          -6.5362897e-24 -8.344211e-24 -6.8396836e-24 -8.696183e-24 -1.2707206e-23 -4.406736e-24
          -6.0189495e-24 -9.941475e-24 -1.436527e-23 -1.66754e-23 -4.0471893e-24 -7.6485816e-24
          -8.3077135e-24 -1.0608615e-23 -9.119445e-24 -1.1034871e-23 -1.5024588e-23 -6.2692385e-24
          -8.095826e-24 -1.2654698e-23 -1.747708e-23 -1.9868013e-23 -3.8933378e-24 -7.862565e-24
          -1.20399564e-23 -1.5160367e-23 -1.1527754e-23 -8.972426e-24 -1.060257e-23 -1.4831191e-23
          -1.9613996e-23 -2.2122402e-23 -4.8571203e-24 -7.509132e-24 -1.3513339e-23 -1.8731384e-23
          -1.0811038e-23 -1.2269922e-23 -1.596226e-23 -2.0297005e-23 -2.268639e-23 -7.9954634e-24
          -1.29690666e-23 -1.8845428e-23 -2.3392935e-23 -2.0250105e-23 -1.8591064e-23 -1.7456809e-23
          -1.9611964e-23 -1.1552806e-23 -1.3578227e-23 -1.8173965e-23 -2.3174198e-23 -1.9901096e-23
          -2.2724729e-23 -1.5392538e-23 -1.7544323e-23 -2.2523099e-23 -2.8450158e-23 -1.2919491e-23
          -1.4463542e-23 -1.8892941e-23 -2.4869957e-23 -2.269628e-23 -2.6426028e-23 -2.0853827e-23
          -2.4572031e-23 -3.210913e-23 -2.821035e-23 -2.797589e-23 -3.3047952e-23 -2.654363e-23
          -1.328678e-23 -1.4906634e-23 -1.8757863e-23 -9.036342e-24 -1.1124483e-23 -3.611991e-24
          6.0186064e-25 -1.621807e-24 -6.6059583e-24 -8.7981625e-24 -6.2415014e-24 -4.0849955e-24
          -5.2462453e-24 -8.386776e-24 -1.0526975e-23 -4.1492253e-24 -6.825811e-24 -8.808044e-24
          -5.2529025e-24 -6.791675e-24 -4.4788288e-24 -5.7698494e-24 -6.0691945e-24 -9.794119e-24
          -1.2065718e-23 -4.9040706e-24 -8.554412e-24 -1.08774894e-23 -3.4205873e-24 -7.235802e-24
          -9.483304e-24 -2.8143047e-24 -6.325018e-24 -8.374274e-24 -1.0063834e-23 -6.5530273e-24
          -8.959156e-24 -5.893516e-24 -8.177995e-24 -4.3081366e-24 -2.116832e-24 -5.3319262e-24
          -2.9493995e-24 -7.40271e-24 -4.9149474e-24 -7.8689994e-25 -7.268222e-24 -9.9314874e-24
          -6.221711e-24 -7.8304455e-24 -3.931299e-24 -3.9846922e-24 -6.675203e-24 -8.968663e-24
          -1.1458574e-23 -5.397658e-24 -7.927488e-24 -9.696688e-24 -5.9991787e-24 -4.000495e-24
          -6.146703e-24 -9.557264e-24 -1.3477965e-23 -6.492396e-24 -1.08619615e-23 -1.5254726e-23
          -5.270157e-24 -7.692666e-24 -9.890934e-24 -1.06237886e-23 -7.793008e-24 -1.1946978e-23
          -1.7063617e-23 -5.9339064e-24 -1.0013143e-23 -1.3489566e-23 -4.4093838e-24 -9.06797e-24
          -1.17620526e-23 -1.256811e-23 -1.0761154e-23 -1.5225448e-23 -2.074276e-23 -8.431159e-24
          -1.2946764e-23 -1.9082091e-23 -7.402798e-24 -1.1646837e-23 -1.7362819e-23 -1.4397464e-23
          -1.3341945e-23 -1.8587644e-23 -1.178649e-23 -1.6997499e-23 -2.3856236e-23 -1.0575607e-23
          -1.6030982e-23 -2.3371065e-23 -1.2447643e-23 -1.1521578e-23 -1.6655556e-23 -1.05905555e-23
          -1.5741768e-23 -2.2295835e-23 -7.7163905e-24 -6.1304886e-24 -9.534034e-24 -1.1938952e-23
          -7.87716e-24 -1.1623675e-23 -1.5354671e-23 -2.16172e-23 -1.6423066e-23 -2.695789e-23
          -2.7882197e-23 -1.730288e-23 -2.0526254e-23 -1.4170992e-23 -1.8572714e-23 -2.07919e-23
          -1.9212482e-23 -2.1146338e-23 -1.8992827e-23 -2.24507e-23 -2.838408e-23 -2.2696407e-23
          -2.4202481e-24 9.233141e-26 -1.65839e-24 -6.4973187e-25 -1.0660108e-25 -1.011695e-24
          -2.7715553e-25 -1.7990476e-24 -9.1955753e-26 -4.6723533e-24 6.6804814e-25 2.5815173e-24
          -3.6797478e-24 -9.873041e-25 -1.6536301e-24 5.1409326e-26 1.469697e-25 3.2894356e-24
          3.048487e-24 1.4567769e-24 1.0672648e-24 2.453203e-24 1.9725516e-24 1.7447097e-24
          8.375125e-25 3.1992473e-26 -4.453542e-25 1.5377559e-24 9.888439e-25 7.584086e-25
          -2.4192826e-24 -4.1271593e-24 -6.2938336e-24 4.576277e-24 4.356742e-24 6.044315e-24
          6.0896867e-24 4.0167196e-24 3.685275e-24 3.2007284e-24 5.4790527e-24 5.6870777e-24
          5.554412e-24 7.382211e-24 7.724953e-24 8.943876e-24 3.1630565e-24 2.8050156e-24
          2.1008961e-24 1.53286e-24 5.0773533e-24 4.89375e-24 4.4817985e-24 6.635018e-24
          7.745367e-24 7.817928e-24 8.672513e-24 9.060294e-24 2.284209e-26 -1.2194874e-24
          -2.64654e-24 -3.4832753e-24 2.3531746e-24 1.7681252e-24 5.6429834e-25 -3.665713e-25
          3.9910153e-24 4.9864935e-24 4.9763705e-24 4.223778e-24 6.0357176e-24 7.123366e-24
          6.738186e-24 -5.330143e-24 -8.2089166e-24 -2.856137e-24 -5.7434537e-24 -8.5759025e-24
          -1.0001648e-23 -1.9729601e-25 -1.7826203e-24 -4.1268375e-24 -5.9053244e-24 -2.1874922e-24
          -3.9181952e-25 -3.6612154e-25 -1.9184285e-24 2.6687863e-24 6.368401e-25 1.3519063e-24
          4.382866e-25 3.1447126e-25 4.023351e-24 3.108984e-24 5.895191e-24 5.1132138e-24
          3.989377e-24 3.341105e-24 7.605328e-24 7.1921624e-24 6.053412e-24 5.2942447e-24
          8.147917e-24 6.967214e-24 6.2331395e-24 2.747029e-24 1.633136e-24 5.2258643e-25
          5.073334e-24 4.0002707e-24 2.6848812e-24 2.045767e-24 7.620493e-24 6.824781e-24
          5.476566e-24 4.535951e-24 9.101484e-24 8.5287444e-24 7.053475e-24 6.0878786e-24
          9.474986e-25 -2.6651602e-25 -1.3998973e-24 3.8819273e-24 2.3791266e-24 7.8029047e-25
          1.78454e-26 7.364425e-24 5.782895e-24 3.7448387e-24 2.7255071e-24 9.041216e-24
          7.5497815e-24 5.3890903e-24 4.2750924e-24 -4.343581e-24 -1.4436426e-24 -3.4593547e-24
          -5.1040066e-24 -5.7345108e-24 3.1998094e-24 5.7913765e-25 -1.9486594e-24 -3.123801e-24
          5.829323e-24 3.3056867e-24 4.707074e-25 -1.0014497e-24 -1.1478601e-23 -7.6903786e-24
          -1.1111409e-23 -1.3366306e-23 -1.391242e-23 -3.9787683e-24 -8.079861e-24 -1.14025505e-23
          -1.2596822e-23 2.7189558e-24 4.5517093e-24 5.4338246e-24 4.0892128e-24 1.4027662e-24
          3.684425e-24 2.065906e-24 5.012672e-24 3.1226337e-24 -6.1071644e-25 1.794972e-24
          3.0495903e-25 3.2611476e-24 1.5015992e-24 -4.063967e-24 -5.1137817e-24 -2.3024891e-24
          -3.998367e-24 -1.31821655e-23 -3.5123176e-24 -1.8907766e-25 6.3894016e-25 -1.0247356e-23
          -6.549105e-24 -9.099443e-24 -5.8414775e-24 -8.299825e-24 -1.0521682e-23 -6.631114e-24
          -9.331619e-24 -5.9980526e-24 -8.6151925e-24 -1.0753019e-23 -4.5199572e-24 -6.756596e-24
          -9.578324e-24 -3.7959e-24 -6.1902203e-24 -8.997799e-24 -1.28008435e-23 -1.1915922e-23
          -1.7454581e-23 -1.1024021e-23 -1.6594715e-23 -2.3180026e-23 -1.3327114e-23 -1.2497732e-23
          -1.8782693e-23 -2.5268722e-23 -1.1639639e-23 -1.7879058e-23 -2.4896193e-23 -1.3758484e-23
          -1.29810635e-23 -1.9827754e-23 -2.683285e-23 -1.21908316e-23 -1.878653e-23 -2.6364888e-23
          -3.0952602e-23 -1.124973e-23 -1.7233645e-23 -6.929804e-24 -8.923479e-24 -8.969459e-24
          -9.4434965e-24 -1.773218e-23 -1.1777492e-23 -1.8808607e-23 -1.18131865e-23 -2.0107869e-23
          -1.22870206e-23 -2.0795656e-23 -8.1713333e-25 -7.725358e-25 -8.345323e-25 -7.983577e-25
          -7.4309514e-25 -2.8034185e-23 -2.7517166e-23 -2.6689654e-23 -2.5285392e-23 -2.4230795e-23
          -3.0209804e-23 -2.5750304e-23 -3.085562e-23 -2.5342827e-23 -3.1100488e-23 -2.9771446e-23
          -2.867944e-23 -3.0738372e-23 -2.8783758e-23 -3.1308542e-23 -3.140636e-23 -3.159581e-23
          -3.1285163e-23 -3.0597756e-23 -3.0589842e-23 -3.3659436e-23 -3.4733167e-23 -3.5454388e-23
          -3.496165e-23 -3.4194123e-23 -5.2752178e-24 -6.5328195e-24 -6.641372e-24 -4.0837014e-24
          -8.471841e-24 -6.3941894e-24 -1.2160205e-23 -8.643904e-24 -1.565416e-23 -1.6176585e-23
          -1.6242193e-23 -1.7215671e-23 -1.566256e-23 2.1929458e-24 -7.628031e-24 -9.385793e-24
          -1.30236226e-23 -1.5972024e-23 -1.6679678e-23 -1.8291378e-23 4.4484803e-25 -9.548952e-24
          -1.1314485e-23 -1.5036173e-23 -1.30907586e-23 -1.5436042e-23 -1.5273769e-23 -1.8729601e-23
          -2.0584256e-23 -1.15780184e-23 -1.2801493e-23 -1.2187351e-23 -1.3200875e-23 -1.6444306e-23
          -2.0235789e-23 -2.2349237e-23 -2.4992208e-23 -6.4209815e-24 -1.274463e-23 -1.1671861e-23
          -1.4088332e-23 -1.7116829e-23 -2.0706666e-23 -2.2795955e-23 -7.1456125e-24 -2.2950335e-23
          -2.4561113e-23 -6.78283e-24 -7.4537944e-24 -7.122505e-24 -2.3344295e-23 -2.0527049e-23
          -1.914255e-23 -2.4858366e-23 -2.4342264e-23 -2.2615087e-23 -2.1579923e-23 -1.9271605e-23
          -2.0566724e-23 -1.7346155e-23 -2.1676735e-23 -1.9485273e-23 -2.2825894e-23 -2.6141012e-23
          -2.3275226e-23 -2.061349e-23 -2.280947e-23 -2.2275072e-23 -2.3006281e-23 -2.3019752e-23
          -2.4809808e-23 -2.8561283e-23 -2.8583703e-23 -2.8714852e-23 -3.299791e-23 -2.3786255e-23
          -2.1325976e-23 -2.7000222e-23 -3.0530738e-23 -3.0470816e-23 -3.2770926e-23 -3.4108033e-23
          -3.4713174e-23 -2.8243764e-23 -2.9801262e-23 -2.7684446e-23 -3.3026858e-23 -3.6173412e-23
          -3.212025e-23 -2.6543437e-23 -2.655684e-23 -2.6561423e-23 -1.4026464e-23 -1.547321e-23
          -1.8913044e-23 -1.655702e-23 -1.7427573e-23 -2.2119082e-23 -1.9864114e-23 -1.6065108e-23
          -7.818263e-24 -7.225025e-24 -1.0436076e-23 -9.496426e-24 -9.2827574e-24 -1.1217436e-23
          -7.218945e-24 -5.4856906e-24 -1.0307471e-23 -1.2056108e-23 -1.1689044e-23 -6.217976e-24
          -1.03634684e-23 -1.2475099e-23 -6.3477495e-24 -8.2087856e-24 -9.509664e-24 -4.5070266e-24
          -5.5660744e-24 -5.7442216e-24 -5.5171646e-24 -2.3832328e-24 -1.799743e-24 9.50417e-25
          -2.5141779e-25 -9.434531e-25 -2.2590768e-24 -3.506158e-24 -5.813273e-24 -4.929046e-24
          -5.374907e-24 -3.8040735e-24 -4.7823667e-24 -4.628224e-24 -4.0043865e-24 -3.7084505e-24
          -4.027839e-24 -3.524469e-24 -3.9643262e-24 -4.3768058e-24 -5.0164687e-24 -3.6155034e-24
          -3.2495673e-24 -3.1964981e-24 -3.1487874e-24 -3.0940645e-24 -2.7312666e-24 -5.744526e-24
          -6.0432248e-24 -9.424617e-24 -1.155674e-23 -3.444019e-24 -4.8093394e-24 -7.910964e-24
          -2.4298076e-24 -3.4095377e-24 -2.0847515e-24 -2.8859561e-24 -1.0188347e-23 -9.105625e-24
          -7.455586e-24 -5.194634e-24 -4.250976e-24 -5.044815e-24 -3.1840136e-24 -1.9136456e-24
          4.3225658e-26 -1.055943e-24 -6.063124e-24 -3.781057e-24 -2.4580267e-24 -4.5198826e-25
          -7.5566376e-25 -7.890523e-24 -4.9658415e-24 -5.514519e-24 -3.744477e-24 -4.0667736e-24
          -2.5864097e-24 -7.973305e-25 -7.407275e-24 -1.0045445e-23 -6.2090204e-24 -6.1705016e-24
          -3.9273894e-24 -3.6639856e-24 -3.902387e-24 -6.3436553e-24 -5.2411335e-24 -4.8580965e-24
          -4.401669e-24 -6.766714e-24 -9.074624e-24 -1.1465183e-23 -6.175428e-24 -1.0086047e-23
          -1.1546168e-23 -3.560651e-24 -3.5622292e-24 -8.462269e-24 -8.290903e-24 -8.2512445e-24
          -8.306734e-24 -8.795568e-24 -9.058391e-24 -8.592007e-24 -9.5735394e-24 -1.387411e-23
          -1.08250254e-23 -1.2878492e-23 -1.4550647e-23 -5.119853e-24 -7.510056e-24 -3.619898e-24
          -6.4693674e-24 -5.2661108e-24 -6.8921405e-24 -9.5669635e-24 -1.609413e-23 -1.4140677e-23
          -1.3663322e-23 -1.7695108e-23 -1.1805467e-23 -1.4225298e-23 -1.8354674e-23 -1.392169e-23
          -1.6139076e-23 -2.081064e-23 -2.1243537e-23 -1.612468e-23 -1.3924397e-23 -1.8921758e-23
          -2.1614095e-23 -1.7620264e-23 -2.4397109e-23 -2.2737816e-23 -1.260806e-23 -1.4531225e-23
          -1.715771e-23 -2.2173277e-23 -2.2618195e-23 -7.740044e-24 -8.5218916e-24 -7.792364e-24
          -1.0377136e-23 -1.2748686e-23 -8.6773114e-24 -1.2213832e-23 -1.540201e-23 -9.435111e-24
          -1.3101294e-23 -1.56671e-23 -1.4341603e-23 -2.0912497e-23 -1.8541425e-23 -1.5374437e-23
          -2.6000453e-23 -2.9371892e-23 -3.0337467e-23 -3.020512e-23 -3.165288e-23 -3.2646144e-23
          -2.732871e-23 -3.1072275e-23 -3.3373284e-23 -3.4044495e-23 -1.8492296e-23 -1.463877e-23
          -2.0562319e-23 -2.0821774e-23 -2.1878303e-23 -2.0954317e-23 -1.6855286e-23 -2.1857165e-23
          -1.9953639e-23 -2.1334696e-23 -2.5677697e-23 -2.2774534e-23 -2.4513919e-23 -2.3243946e-23
          -2.3410142e-23 -2.6528288e-23 -2.842798e-23 -2.896753e-23 -3.0043294e-23 -2.2675652e-23
          -2.359171e-23 -2.3281196e-23 -1.1330877e-24 -2.0405538e-24 -2.222725e-24 -1.830593e-24
          -2.305152e-24 -2.0501818e-24 -2.5616238e-24 2.5134866e-25 -8.771465e-25 4.239267e-25
          -2.3529406e-25 2.531347e-25 5.5570937e-26 5.371484e-25 -1.6586536e-24 -1.3991093e-24
          -1.4190779e-24 -1.1909039e-24 -9.504285e-25 6.67468e-25 3.6535583e-25 -1.7176963e-24
          6.920239e-25 -1.0703426e-24 1.291357e-24 -3.648263e-25 3.0618215e-26 -8.743738e-25
          2.8733605e-25 3.3677685e-25 -9.73472e-25 -9.850143e-25 -9.627563e-25 -9.812217e-25
          -9.813025e-25 -2.7534576e-25 -2.680324e-25 -2.8569288e-25 -3.6027458e-25 -2.6847052e-25
          -2.6419415e-25 -3.3878006e-24 -1.179936e-25 -1.5360824e-24 -9.25567e-25 -2.0900704e-24
          -1.6299075e-24 -1.404553e-24 -1.1207975e-24 6.0212274e-25 5.6110795e-26 -1.4362662e-25
          8.661852e-26 -3.872934e-25 -4.8362546e-24 -3.8077054e-24 1.5111369e-24 3.1699425e-24
          2.7817407e-24 9.181067e-25 2.586197e-24 -7.877577e-26 2.7071811e-24 1.7392194e-24
          3.8723845e-24 1.8926998e-25 -3.3980353e-24 -1.8264861e-24 -8.2717647e-25 -4.5147555e-25
          2.9293637e-25 2.4415186e-25 3.311891e-24 3.1828737e-24 3.214917e-24 2.0197987e-24
          2.8053872e-24 1.6694308e-24 3.3096494e-24 2.4788855e-24 1.1874918e-24 8.584357e-25
          1.8668912e-24 2.4227413e-24 1.4895883e-24 2.4671899e-24 6.6512225e-25 -1.6849312e-25
          -5.1443227e-25 1.0675926e-24 -8.0748626e-25 -1.0355011e-24 -7.500193e-25 -6.0686315e-25
          1.9361102e-24 3.1050192e-24 -4.5800187e-24 -2.6237522e-24 -4.213593e-24 -1.0608075e-24
          -1.732892e-24 -6.320704e-25 -2.7509629e-24 -4.685937e-24 -4.5930697e-24 -4.7451005e-24
          -6.3205654e-24 -6.47467e-24 -8.320896e-24 4.620219e-24 4.496111e-24 5.992574e-24
          5.9878495e-24 4.583275e-24 4.2647347e-24 5.9390813e-24 5.4817854e-24 6.2432716e-24
          7.217396e-24 7.269312e-24 7.50691e-24 7.514916e-24 8.643895e-24 4.0140667e-24
          3.2184645e-24 5.3554753e-24 5.528683e-24 6.8113595e-24 6.5343167e-24 7.7759826e-24
          8.509467e-24 8.2089055e-24 3.2897462e-24 4.7091075e-24 3.99824e-24 6.4991453e-24
          4.1153726e-24 6.630225e-24 7.448859e-24 6.4292874e-24 -8.016638e-24 -7.475935e-24
          3.8569145e-24 4.2248112e-24 1.3967961e-24 -8.651278e-24 -1.0165533e-23 -1.1024207e-23
          2.867816e-24 2.4440648e-24 1.0218235e-24 2.100452e-24 1.7179255e-24 2.0588435e-24
          5.3362397e-25 4.361233e-25 -2.544704e-26 1.0019016e-25 -1.533004e-25 -5.348113e-25
          -5.780064e-26 -6.7334573e-25 -6.0485156e-25 -3.018995e-24 -7.188458e-25 -1.4573154e-24
          -5.041219e-24 4.286087e-24 3.542786e-24 5.835865e-24 5.344544e-24 4.4595423e-24
          3.779882e-24 7.390893e-24 6.891526e-24 6.0490446e-24 5.43264e-24 7.805945e-24
          6.7522604e-24 6.148182e-24 2.1374965e-24 2.137391e-24 2.0964667e-24 2.2452778e-24
          8.015646e-24 8.2864285e-24 8.527463e-24 2.5260468e-25 3.6337512e-25 -5.335194e-24
          -1.5335051e-24 -1.9261352e-24 -1.4820618e-24 -5.657755e-24 -6.877366e-24 -5.7087253e-24
          -5.9308996e-24 -5.9369084e-24 -1.184524e-23 -8.244558e-24 -6.5702403e-24 -5.9094233e-24
          -1.1946685e-23 -1.2963514e-23 -1.330934e-23 -1.3859136e-23 -1.3956502e-23 -1.3931176e-23
          2.8951333e-24 4.7658984e-24 5.4622173e-24 4.0991824e-24 2.4139347e-24 2.5131337e-24
          3.414555e-24 3.882658e-24 2.986047e-24 4.032788e-24 6.276268e-25 8.655737e-25
          1.2602579e-24 1.606003e-24 2.1444462e-24 -1.3233035e-24 -1.087899e-24 -3.774869e-24
          -7.058457e-25 -2.4817212e-25 2.3070651e-25 -5.78594e-24 -5.212649e-24 -1.0768336e-23
          -5.1342984e-24 -5.5065438e-24 -4.466819e-24 -8.566361e-24 -1.35922e-23 -1.3105072e-23
          -2.3767559e-24 -2.6798443e-24 3.1611456e-25 -3.4708e-24 -4.4890766e-25 -3.192099e-24
          -2.9420506e-24 7.069709e-25 3.5273329e-25 -6.0797885e-25 6.418524e-25 6.398982e-25
          6.4734113e-25 6.4328944e-25 6.0666224e-25 -1.03448505e-23 -9.327548e-24 -7.5122514e-24
          -5.0473214e-24 -4.202009e-24 -1.0576312e-23 -9.734672e-24 -7.746372e-24 -4.370435e-24
          -4.193342e-24 -3.6143993e-24 -3.572299e-24 -1.0790155e-23 -5.385914e-24 -9.7874714e-24
          -8.148964e-24 -1.07126995e-23 -4.046809e-24 -4.4515224e-24 -6.5231326e-24 -9.07547e-24
          -3.2390804e-24 -3.686619e-24 -5.833172e-24 -8.3787536e-24 -1.0457905e-23 -1.2940417e-23
          -1.5390122e-23 -1.7863433e-23 -2.3383516e-23 -2.3532532e-23 -2.3930706e-23 -2.6841475e-23
          -1.341757e-23 -1.6417289e-23 -1.9051866e-23 -2.5252228e-23 -2.565263e-23 -2.8870996e-23
          -2.9860193e-23 -1.3805695e-23 -1.629203e-23 -1.36234e-23 -2.0071034e-23 -2.6788218e-23
          -1.2102544e-23 -1.8365983e-23 -2.7500433e-23 -2.6448321e-23 -3.0938976e-23 -2.453235e-23
          -3.065653e-23 -3.1406843e-23 -1.1394748e-23 -1.7881393e-23 -1.1438072e-23 -2.1253948e-23
          -6.366391e-24 -8.5723606e-24 -7.337752e-24 -9.842537e-24 -6.4926865e-24 -7.371944e-24
          -9.632817e-24 -8.376735e-24 -9.881221e-24 -8.5649666e-24 -1.7923507e-23 -1.26770105e-23
          -1.1497645e-23 -1.951878e-23 -1.2546525e-23 -1.8953335e-23 -2.2338875e-23 -1.2743735e-23
          -2.0232058e-23 -2.7960244e-23 -1.30736474e-23 -2.10065e-23 -2.6353205e-23 -2.9494294e-23
          -2.46799e-23 -3.2899652e-23 -1.461044e-23 -1.2159485e-23 -1.6921101e-23 -1.1666742e-23
          -9.37459e-24 -1.72239e-23 -1.3004536e-23 -9.002525e-24 -2.3225673e-23 -2.1639666e-23
          -2.5750056e-23 -2.834601e-23 -1.3349484e-23 -2.446663e-23 -2.2361584e-23 -3.1435085e-23
          -3.0978864e-23 -2.7860462e-23 -2.6254623e-23 -2.0361191e-23 -1.2057267e-23 -1.8311397e-23
          -2.0255918e-23 -2.2845066e-23 -6.0559767e-24 -4.2486175e-24 -2.4542826e-24 -4.9099046e-24
          -8.027604e-24 -3.7173627e-24 -3.845894e-24 -7.9187104e-24 -3.177537e-24 -5.763259e-24
          -9.637258e-24 -5.7560123e-24 -8.818147e-24 -1.6414973e-24 -3.8953928e-24 -7.16472e-24
          -3.9620665e-24 -7.1256275e-24 -1.1389571e-23 -1.00326304e-23 -3.1153269e-24 -6.1295715e-24
          -6.4713187e-24 -2.6357856e-24 -4.304098e-24 -9.522688e-24 -1.20437635e-23 -1.0107623e-23
          -1.6101978e-23 -5.632565e-24 -4.418774e-24 -6.912344e-24 -1.1065013e-23 -2.067597e-23
          -1.8338279e-23 -6.117681e-24 -1.27298784e-23 -1.9745821e-23 -1.8205491e-23 -2.3799328e-23
          -1.4476907e-23 -1.927842e-23 -8.4378645e-24 -5.1856434e-24 -7.478561e-24 -1.25475616e-23
          -4.575968e-24 -6.8502385e-24 -7.113791e-24 -9.516507e-24 -1.4959857e-23 -5.6470557e-24
          -1.3533668e-23 -7.777544e-24 -1.5244191e-23 -1.7209015e-23 -2.79676e-23 -2.049338e-23
          -3.2099697e-23 -2.100843e-23 -1.9023243e-23 -2.7235025e-23 -3.597987e-25 -4.1988818e-24
          -1.4864508e-24 -2.5946181e-24 3.4346333e-25 1.0081201e-24 1.8766445e-24 1.3255195e-24
          -2.9766863e-25 -3.0530138e-24 -2.6841264e-24 7.941113e-24 2.94817e-24 4.117372e-24
          5.7253458e-24 6.128547e-24 8.192449e-24 1.1371409e-24 -6.9656655e-25 2.9501613e-24
          1.9957258e-24 3.494984e-24 6.5964064e-24 -2.7681634e-24 -4.476483e-24 -6.466569e-24
          -5.903336e-24 -3.437411e-24 6.1000765e-25 2.2109168e-24 1.4934284e-24 -7.273296e-24
          -1.1055016e-23 -1.3736608e-23 -1.0281252e-23 4.9063438e-26 7.754638e-25 -1.9258483e-24
          2.971197e-24 3.524352e-24 6.789384e-24 7.678087e-24 2.28164e-24 3.0074928e-24
          1.419023e-24 6.509057e-24 8.0417664e-24 7.86013e-24 1.0236874e-24 -5.8441473e-25
          -3.2922025e-25 -3.361902e-24 -4.4863482e-24 -1.5993248e-23 -1.7081571e-23 -1.4835856e-23
          -1.8321026e-23 4.3249023e-24 2.2079134e-24 3.9943404e-24 2.9303883e-24 -3.6853132e-24
          -1.2849529e-24 -3.3134406e-24 -7.1690164e-24 -1.0307702e-23 -1.5156168e-23 -5.969005e-24
          -8.849547e-24 -2.5219413e-23 -2.189635e-23 -2.0579426e-23 -2.5765668e-23 -2.8564647e-23
          -1.6090999e-23 -1.02818845e-23 -2.16964e-23 -2.8015322e-23 -8.512357e-24 -1.4262946e-23
          -1.4719605e-23
        </DataArray>
        <DataArray type="Float32" Name="inter_rho2" format="ascii" RangeMin="-4.6168716183081475e-26" RangeMax="2.654108957069286e-26">
          3.8683416e-27 1.3318168e-26 1.4164008e-26 1.5501135e-26 1.655094e-26 1.712191e-26
          1.6946962e-26 1.7922171e-26 1.9453298e-26 2.0537524e-26 2.0036044e-26 9.824227e-27
          1.000521e-26 1.00799576e-26 1.2563332e-26 1.2669531e-26 1.3002272e-26 1.3175977e-26
          1.3198492e-26 1.5227536e-26 1.5149565e-26 1.4100752e-26 1.1743419e-26 1.9574263e-26
          2.0185615e-26 2.0147594e-26 1.8365426e-26 1.6590483e-26 2.1554358e-26 2.2547854e-26
          2.3070707e-26 2.1612827e-26 1.4442425e-26 1.4016695e-26 1.2830323e-26 1.8903116e-26
          1.915818e-26 1.9009776e-26 1.7731485e-26 1.6585534e-26 2.092278e-26 2.1571435e-26
          2.2042504e-26 2.1217556e-26 1.3562382e-26 1.28972626e-26 1.1482302e-26 1.8537056e-26
          1.8391255e-26 1.7637206e-26 1.6156848e-26 1.564251e-26 2.0871217e-26 2.1049793e-26
          2.0708435e-26 1.9544903e-26 1.2437966e-26 1.783561e-26 1.7453984e-26 1.6381818e-26
          1.4882044e-26 1.4345436e-26 2.0446218e-26 2.0320473e-26 1.9510254e-26 1.8235762e-26
          1.7967939e-26 1.7471915e-26 1.6198348e-26 1.4544574e-26 1.3512146e-26 2.0710995e-26
          1.9548756e-26 1.7961706e-26 1.2053028e-26 1.2984416e-26 1.3496798e-26 1.334258e-26
          1.2304276e-26 1.8487342e-26 1.7899758e-26 1.6391379e-26 1.4487737e-26 1.2479268e-26
          1.1099887e-26 1.762867e-26 1.654612e-26 1.4062496e-26 1.1218502e-26 2.0157945e-26
          1.9259899e-26 1.6917285e-26 1.4175357e-26 1.442798e-26 1.2554812e-26 1.6801586e-26
          1.5037071e-26 1.09176146e-26 1.0350002e-26 1.2498829e-26 9.836611e-27 8.42735e-27
          1.5623745e-26 1.4913834e-26 1.3327033e-26 9.257515e-27 8.53727e-27 1.6698281e-26
          1.641549e-26 1.7781382e-26 1.1603408e-26 1.1296104e-26 1.436027e-26 1.7048925e-26
          1.1091885e-26 1.088123e-26 1.0410831e-26 1.3060184e-26 1.367458e-26 1.3670114e-26
          1.6101201e-26 1.6566615e-26 1.7239923e-26 1.7956909e-26 1.0220425e-26 9.772464e-27
          9.19854e-27 1.2457649e-26 1.2678185e-26 1.2469459e-26 1.438151e-26 1.5271762e-26
          1.546579e-26 1.5280944e-26 1.6523394e-26 1.6942831e-26 1.0049485e-26 1.2415685e-26
          1.2475652e-26 1.3451359e-26 1.3672771e-26 1.4859845e-26 1.85577e-26 1.422553e-26
          1.813335e-26 1.3623008e-26 1.8112838e-26 2.0178831e-26 1.2877717e-26 1.2723486e-26
          1.702667e-26 1.7702717e-26 1.7278077e-26 2.0068078e-26 1.2589234e-26 1.263456e-26
          1.22805544e-26 1.6722714e-26 1.7601807e-26 1.7982052e-26 1.8691218e-26 1.5024213e-26
          1.2794461e-26 1.12424535e-26 1.0309438e-26 1.4512697e-26 1.4465624e-26 1.3881801e-26
          1.7357926e-26 1.8224265e-26 1.8549556e-26 1.0906569e-26 1.4444045e-26 1.4153493e-26
          1.3234367e-26 1.7586035e-26 1.8124441e-26 1.7989799e-26 1.9083766e-26 2.0047875e-26
          2.0316233e-26 9.838278e-27 1.3473133e-26 1.2554972e-26 1.0875227e-26 1.674181e-26
          1.647602e-26 1.5371338e-26 1.8326864e-26 1.8403673e-26 1.760238e-26 8.4150235e-27
          1.1951023e-26 1.033817e-26 1.5230325e-26 1.4071354e-26 1.1915529e-26 1.6861289e-26
          1.595231e-26 1.3988299e-26 9.468966e-27 1.207053e-26 1.0623388e-26 1.3366268e-26
          1.2062118e-26 9.749641e-27 1.1529124e-26 1.545077e-26 1.5905014e-26 1.5861125e-26
          1.280014e-26 1.246012e-26 1.16291926e-26 1.3019698e-26 1.6912836e-26 9.095715e-27
          9.0058225e-27 1.346751e-26 8.226467e-27 1.6578704e-26 1.0729863e-26 6.0093532e-27
          1.3273934e-26 1.0287363e-26 1.347553e-26 7.6151154e-27 6.704538e-27 9.8110785e-27
          -6.0772565e-27 -3.8145676e-28 6.584032e-28 1.3398535e-27 1.3632858e-27 3.522743e-27
          -1.364557e-26 -4.0579936e-26 1.0200876e-26 8.394437e-27 1.24922595e-26 1.582036e-26
          1.1290799e-26 1.5080284e-26 1.5933668e-26 1.9594775e-26 2.1188536e-26 8.729531e-27
          7.9162515e-27 6.766269e-27 5.749841e-27 1.0132517e-26 9.059092e-27 8.0960995e-27
          7.886947e-27 6.3604645e-27 5.2394585e-27 1.0264158e-26 8.982892e-27 7.89719e-27
          9.075571e-27 7.3072856e-27 7.732076e-27 1.1211961e-26 1.0667169e-26 1.4615246e-26
          1.4683784e-26 1.242812e-26 1.2021069e-26 1.1287661e-26 1.5467866e-26 1.6368038e-26
          1.6265303e-26 1.911803e-26 1.9690173e-26 2.1002875e-26 1.26767675e-26 1.312412e-26
          1.24512565e-26 1.1526459e-26 1.7340723e-26 1.7964725e-26 1.7602394e-26 2.016631e-26
          2.1963909e-26 2.2237664e-26 2.3591546e-26 2.4202479e-26 1.2820364e-26 1.2646142e-26
          1.1309576e-26 9.993209e-27 1.7107198e-26 1.848339e-26 1.8256227e-26 1.7318175e-26
          2.0258794e-26 2.3098741e-26 2.3957749e-26 2.3540352e-26 2.5138225e-26 2.654109e-26
          2.6419016e-26 1.10153024e-26 9.79189e-27 1.6460373e-26 1.6446724e-26 1.4937553e-26
          1.3313379e-26 2.0941206e-26 2.2176915e-26 2.1469406e-26 2.0203048e-26 2.297425e-26
          2.4876282e-26 2.4595369e-26 2.3565879e-26 7.114291e-27 4.68725e-27 7.20663e-27
          5.3575404e-27 6.90438e-27 9.945841e-27 8.286781e-27 1.4200376e-26 1.2893619e-26
          1.1084562e-26 9.944557e-27 1.6893664e-26 1.596332e-26 1.4418171e-26 1.3346987e-26
          1.7056535e-26 1.5641736e-26 1.4615335e-26 1.041448e-26 8.497694e-27 6.325933e-27
          1.5553724e-26 1.3820586e-26 1.1603839e-26 1.02610905e-26 1.9154441e-26 1.767987e-26
          1.5572788e-26 1.4200963e-26 2.0547868e-26 1.9190924e-26 1.7140162e-26 1.5764513e-26
          1.04486576e-26 8.221506e-27 5.85107e-27 1.6547479e-26 1.4234328e-26 1.15503034e-26
          1.00147055e-26 2.1249958e-26 1.897932e-26 1.6175274e-26 1.4483479e-26 2.3245158e-26
          2.0989339e-26 1.8130144e-26 1.6371483e-26 8.646011e-27 1.5673315e-26 1.2492642e-26
          9.314489e-27 7.684155e-27 2.1699884e-26 1.8084474e-26 1.4351523e-26 1.23595884e-26
          2.4487964e-26 2.0665085e-26 1.6668534e-26 1.4507345e-26 1.1157341e-26 1.7519434e-26
          1.2780988e-26 8.635668e-27 6.745545e-27 2.0639492e-26 1.543836e-26 1.08296535e-26
          8.691748e-27 8.71315e-27 1.2043386e-26 1.3289408e-26 1.0859717e-26 8.873718e-27
          1.2644235e-26 9.89657e-27 1.413469e-26 1.1235359e-26 8.493647e-27 1.2689928e-26
          9.584648e-27 1.4451707e-26 1.109658e-26 1.0493762e-26 7.375116e-27 1.2448258e-26
          8.964602e-27 7.034906e-27 1.321932e-27 1.4730876e-27 -4.6085365e-26 9.800737e-27
          1.2248079e-26 1.226875e-26 1.3308863e-26 1.349141e-26 9.3238275e-27 1.1906996e-26
          1.1854137e-26 1.3007799e-26 1.3116839e-26 8.839645e-27 1.1324961e-26 1.1535164e-26
          1.1409952e-26 1.2199957e-26 1.266627e-26 1.2701743e-26 9.167906e-27 1.18087016e-26
          1.0243748e-26 1.3129316e-26 1.1703019e-26 9.2453504e-27 8.597219e-27 1.1293227e-26
          9.5147796e-27 6.74e-27 1.2651396e-26 1.10018155e-26 8.282906e-27 8.0263315e-27
          1.07524584e-26 8.773496e-27 5.7742053e-27 1.21355434e-26 1.0273568e-26 7.311937e-27
          5.6463235e-27 1.0728842e-26 8.988582e-27 1.0345229e-26 1.0191029e-26 9.444539e-27
          9.03667e-27 8.4035126e-27 9.4505e-27 7.302205e-27 8.5896275e-27 6.214804e-27
          8.1264344e-27 5.6472896e-27 3.8961894e-27 3.852939e-27 3.843994e-27 3.8616933e-27
          3.8494413e-27 1.03598915e-26 1.07309296e-26 1.04003915e-26 9.722591e-27 9.4438275e-27
          1.0505189e-26 1.1030259e-26 1.02287526e-26 1.1229292e-26 9.348455e-27 8.4441204e-27
          8.0353464e-27 1.0404279e-26 1.1048192e-26 9.7013475e-27 9.99482e-27 9.3019065e-27
          8.287198e-27 7.8439876e-27 6.968991e-27 9.670503e-27 9.044654e-27 8.069911e-27
          7.0216055e-27 6.603267e-27 8.0278145e-27 7.5743235e-27 1.1748153e-26 1.11399524e-26
          1.1232974e-26 1.0512343e-26 1.0737677e-26 9.5609595e-27 1.1048481e-26 1.1123259e-26
          1.1237528e-26 1.0474058e-26 1.0587482e-26 2.0440962e-26 1.1386187e-26 1.07840675e-26
          1.0524962e-26 1.1211401e-26 1.11025486e-26 1.0471002e-26 2.005083e-26 1.1486866e-26
          1.1067899e-26 1.1178673e-26 1.17739586e-26 1.1281336e-26 1.13139394e-26 1.0878252e-26
          1.08651746e-26 1.1986047e-26 1.18816966e-26 1.2190817e-26 1.18103625e-26 1.1556406e-26
          1.1132881e-26 1.1196757e-26 1.1334721e-26 2.0969331e-26 1.2385669e-26 1.22276645e-26
          1.2258115e-26 1.1993257e-26 1.15704494e-26 1.1311274e-26 2.0648758e-26 1.1738924e-26
          1.1486362e-26 2.0996157e-26 2.0603312e-26 2.0964755e-26 1.0728834e-26 1.0088708e-26
          9.8305404e-27 1.12175836e-26 1.08074106e-26 1.01838715e-26 9.9478734e-27 1.0039314e-26
          1.0629845e-26 1.1422907e-26 1.1251548e-26 1.12257765e-26 1.12525184e-26 1.0710984e-26
          1.16021764e-26 1.0633065e-26 1.0869545e-26 1.088071e-26 1.0951587e-26 1.0894569e-26
          1.16562534e-26 1.1081651e-26 1.10489684e-26 1.10706136e-26 1.0036393e-26 1.0685235e-26
          1.06635644e-26 1.02522405e-26 1.0268581e-26 9.5508784e-27 9.902367e-27 9.791414e-27
          9.336902e-27 9.6165126e-27 9.460028e-27 9.253625e-27 8.614913e-27 8.091411e-27