<VTKFile type="UnstructuredGrid" version="1.0" byte_order="LittleEndian" header_type="UInt64">
  <UnstructuredGrid>
    <Piece NumberOfPoints="12945" NumberOfCells="20444">
      <PointData Scalars="rho_kernel">
        <DataArray type="Float32" Name="inter_rho1" format="ascii" RangeMin="-4.2835418774087827e-20" RangeMax="4.578200090588937e-20">
          3.353534e-23 2.8135832e-23 4.0485307e-23 3.3136087e-23 5.9655075e-23 4.7694376e-23
          9.013329e-23 6.9761936e-23 1.1265416e-22 8.525507e-23 2.592715e-23 3.758801e-23
          3.1106448e-23 5.684523e-23 4.5662728e-23 8.9615754e-23 7.001449e-23 1.148236e-22
          8.768e-23 1.820056e-23 2.2783857e-23 4.3617896e-23 3.5182057e-23 7.4147e-23
          5.824847e-23 1.0007027e-22 7.7231685e-23 8.320669e-24 1.0172655e-23 2.0879198e-23
          1.5992091e-23 3.8275197e-23 2.7921195e-23 4.0781436e-23 1.0754315e-23 5.5087056e-24
          1.3504973e-22 9.8927865e-23 1.6371553e-22 1.1357244e-22 1.5354169e-22 1.00543566e-22
          1.23695e-22 7.557791e-23 1.4613786e-22 1.0915928e-22 2.0515677e-22 1.4607717e-22
          2.3063703e-22 1.5519402e-22 3.6935906e-22 2.206194e-22 1.4531593e-22 1.4094709e-22
          1.0597084e-22 1.9163042e-22 4.27615e-22 2.9819465e-22 5.17313e-22 3.4800408e-22
          6.353423e-23 1.4412617e-22 3.6949798e-22 5.943946e-22 3.2001563e-23 2.2280551e-23
          3.8183645e-23 1.7063082e-22 2.7983998e-23 5.443731e-23 3.745734e-23 9.430163e-23
          6.186734e-23 1.3229074e-22 8.41407e-23 1.6061159e-22 1.348096e-22 3.4897887e-23
          4.72505e-23 8.4043183e-23 1.6953979e-22 1.2472206e-22 1.7723975e-22 2.1995992e-22
          3.529589e-23 2.8689224e-23 4.744859e-23 3.7670494e-23 8.2891466e-23 6.2414706e-23
          1.33908e-22 9.2610503e-23 3.5460856e-23 2.9259056e-23 4.6239836e-23 3.685695e-23
          7.6737145e-23 5.944227e-23 1.291161e-22 9.310198e-23 3.4537173e-23 2.8803603e-23
          4.287081e-23 3.4736692e-23 6.6519105e-23 5.251226e-23 1.05563505e-22 7.9681597e-23
          2.3487134e-23 2.1259415e-23 1.4888852e-23 2.1376692e-23 2.2073573e-23 2.3095512e-23
          2.350025e-23 -6.3765624e-26 4.2948186e-25 -1.4317289e-24 -1.6778267e-24 -3.5085283e-23
          -4.7878117e-23 -8.646289e-23 -3.2002522e-23 -4.279366e-23 -3.5671053e-23 -4.826689e-23
          -3.1642634e-23 -4.281712e-23 -3.2859752e-23 -4.912125e-23 -8.589337e-23 -1.1312075e-22
          -8.638398e-23 -2.9269172e-23 -4.1983218e-23 -2.0891897e-23 -2.9235223e-23 -1.447661e-23
          -2.020967e-23 -3.498856e-23 -5.689422e-23 -1.20101714e-23 -1.6756785e-23 -2.8937217e-23
          -4.7484356e-23 -3.3953738e-23 -4.141797e-23 -9.9827634e-23 -1.7086346e-22 -1.5479723e-22
          -2.6382257e-23 -3.774179e-23 -7.809701e-23 -1.5410625e-22 -1.7513982e-23 -2.6284249e-23
          -5.2117462e-23 -1.0127974e-22 -1.3742019e-22 -1.2521471e-23 -1.8062231e-23 -3.6163356e-23
          -6.639125e-23 -8.5919076e-23 -1.0428117e-23 -1.5473098e-23 -3.0441073e-23 -5.759365e-23
          -7.6920356e-23 -2.1573079e-23 -6.41974e-23 -1.827364e-23 -3.222761e-23 -5.961093e-23
          -1.8074428e-22 -1.9430039e-23 -4.6099384e-23 -9.5309253e-23 -1.2885428e-22 -9.3468516e-24
          -1.4981551e-23 -2.9889952e-23 -6.8473644e-23 -1.0778402e-22 -1.21781175e-23 -2.7399818e-23
          -5.2905364e-23 -7.3561065e-23 -1.031603e-23 -1.4205714e-23 -2.3987473e-23 -7.733383e-24
          -1.0457282e-23 -1.7011577e-23 -2.4474429e-23 -2.7772924e-23 -7.73187e-24 -1.2394457e-23
          -1.7554845e-23 -2.015295e-23 -6.623381e-24 -1.0560374e-23 -1.4849507e-23 -1.7134449e-23
          -9.044897e-24 -1.3271614e-23 -2.5868948e-23 -4.745714e-23 -6.307599e-23 -7.068836e-24
          -1.0159179e-23 -1.9455241e-23 -3.453459e-23 -4.5286738e-23 -5.617248e-24 -8.00076e-24
          -1.492461e-23 -2.5895445e-23 -3.3728004e-23 -4.9846484e-24 -7.090008e-24 -1.3060964e-23
          -2.2429603e-23 -2.897628e-23 -7.26421e-24 -1.08165365e-23 -2.3161458e-23 -4.6556864e-23
          -6.4103576e-23 -5.8224206e-24 -8.669322e-24 -1.7801702e-23 -3.4743706e-23 -4.8305692e-23
          -4.8164798e-24 -7.0839015e-24 -1.4126654e-23 -2.634138e-23 -3.5548395e-23 -4.3708586e-24
          -6.42735e-24 -1.25139514e-23 -2.3116195e-23 -3.100848e-23 -6.9497565e-24 -1.1644583e-23
          -2.902286e-23 -7.997189e-24 -1.2299611e-23 -6.8977335e-24 -1.1362732e-23 -2.6310603e-23
          -7.957162e-24 -1.19350356e-23 -2.4465469e-23 -6.922063e-24 -1.0547449e-23 -2.1338323e-23
          -7.8478044e-24 -1.1080944e-23 -2.0672804e-23 -7.0132346e-24 -9.572659e-24 -1.7066236e-23
          -3.0623858e-23 -7.638488e-24 -1.01283855e-23 -1.6880795e-23 -2.768965e-23 -7.051962e-24
          -9.079077e-24 -1.5061964e-23 -2.4683578e-23 -3.234008e-23 -7.50138e-24 -9.5779705e-24
          -1.4926402e-23 -2.3138493e-23 -2.893415e-23 -7.262262e-24 -9.159703e-24 -1.4959466e-23
          -2.606204e-23 -1.4109202e-23 -2.3999151e-23 -9.099477e-24 -1.4741404e-23 -2.5776757e-23
          -1.3615135e-23 -2.3341241e-23 -1.411401e-23 -2.43982e-23 -2.1442827e-23 -2.2611445e-23
          -8.6851756e-24 -7.276914e-24 -5.624807e-24 -3.285491e-23 -4.210601e-23 -2.955363e-23
          -3.4154288e-23 -4.4538793e-23 -3.071388e-23 -3.9129732e-23 -3.5223908e-23 -4.6777558e-23
          -3.166114e-23 -4.1610873e-23 -6.303538e-24 -4.903142e-24 -3.858624e-24 -3.414774e-24
          -4.8487257e-24 -3.8658286e-24 -3.1925335e-24 -2.9102572e-24 -7.090435e-24 -9.079265e-24
          -1.5081159e-23 -2.4901777e-23 -7.399619e-24 -9.448392e-24 -1.4887908e-23 -2.3423612e-23
          -7.190329e-24 -9.148337e-24 -1.5204866e-23 -2.5629764e-23 -7.208011e-24 -9.173512e-24
          -1.468367e-23 -2.3850195e-23 -7.260899e-24 -9.177611e-24 -1.5133411e-23 -2.6084885e-23
          -8.886065e-24 -1.4342627e-23 -2.4012124e-23 1.3995459e-22 1.9417645e-22 2.0156613e-22
          9.020961e-23 -6.981847e-23 6.754172e-23 7.954445e-23 7.10886e-23 -2.9664837e-23
          -8.989469e-23 -1.6671679e-23 -2.761472e-23 -6.916552e-23 -3.575134e-23 -4.7620885e-23
          1.2294381e-22 2.1754032e-22 2.9581857e-22 1.6198918e-22 1.5418954e-22 4.5009753e-23
          9.544849e-23 9.393339e-23 2.0625975e-23 -2.208178e-23 -2.7618118e-23 -8.082167e-23
          -1.259755e-22 -3.562675e-23 -4.765263e-23 -1.1013435e-22 1.2368264e-22 1.8405339e-22
          6.0426634e-22 7.636611e-22 3.2794955e-22 4.4978567e-23 5.797813e-23 2.1377368e-22
          1.6125553e-22 8.237934e-24 -3.024449e-23 -3.9868538e-23 -1.05414145e-22 -2.1309718e-22
          -3.5817595e-23 -5.0188277e-23 6.6148884e-23 1.9477168e-22 5.4460705e-22 3.3464367e-21
          -1.00076165e-23 7.0641636e-23 1.01766004e-22 9.671515e-22 1.5569626e-21 -4.373297e-23
          -1.4100434e-22 -5.9421976e-22 -5.4686287e-23 2.3914517e-22 5.792077e-23 -4.4949342e-23
          -1.652647e-23 1.0485043e-21 -7.513088e-23 -8.4260423e-23 -9.408966e-22 -2.0697471e-23
          9.777071e-22 2.9071976e-22 1.5727779e-22 9.179097e-23 3.9208712e-22 3.4681637e-22
          2.0686489e-22 9.924481e-23 2.3000137e-22 2.9409805e-22 2.9221576e-22 1.6772294e-22
          9.2005344e-24 4.3503733e-22 2.5332477e-22 1.6039899e-22 5.1734175e-22 2.8337696e-22
          1.8118888e-22 2.317759e-22 3.56874e-22 4.37602e-22 2.4122526e-22 4.787097e-22
          1.1929104e-21 7.9001443e-22 2.2459067e-22 1.2271765e-21 7.3186244e-22 7.935197e-22
          2.839401e-22 4.0166427e-22 2.3365563e-22 5.54351e-23 7.9617226e-23 1.2648232e-22
          1.0791029e-22 5.5663e-23 1.7640689e-23 2.389774e-23 3.098947e-23 -2.517492e-24
          -3.2868436e-23 -2.7496086e-24 -6.1630488e-24 -2.3859444e-23 -6.105404e-23 1.4091285e-22
          1.4903555e-22 1.0867608e-22 1.8754307e-23 2.5139579e-23 3.8093856e-23 1.6289851e-23
          -1.455377e-23 -2.651872e-24 -5.8941233e-24 -2.050951e-23 -5.6025204e-23 1.5791264e-22
          2.174636e-22 2.2112034e-22 2.0239093e-23 2.7042672e-23 4.608678e-23 5.2550373e-23
          3.9759953e-23 -2.6738419e-24 -5.2982494e-24 -1.4742067e-23 -4.0918404e-23 -6.2545575e-23
          2.8766168e-22 2.0770706e-23 2.7503348e-23 4.6476826e-23 7.0727514e-23 7.9338114e-23
          -3.003984e-24 -4.8032786e-24 -1.05135595e-23 -2.5210396e-23 -3.9220356e-23 2.0572033e-23
          2.6903858e-23 4.38378e-23 6.949283e-23 8.4042893e-23 -3.326753e-24 -4.6987352e-24
          -9.094516e-24 -1.8786879e-23 -2.790054e-23 1.03323826e-23 1.6504389e-23 3.938719e-23
          8.783498e-23 3.4401912e-24 6.2911006e-24 1.7503964e-23 3.908362e-23 -4.394757e-24
          -5.116379e-24 -6.893235e-24 -1.2279972e-23 -7.096264e-24 -8.882447e-24 -1.4507464e-23
          -2.5637039e-23 7.197745e-24 1.2234133e-23 3.355653e-23 8.260732e-23 1.0716284e-24
          3.2154446e-24 1.295642e-23 3.3640475e-23 -5.5780414e-24 -6.3906312e-24 -8.780944e-24
          -1.4699907e-23 -7.3382066e-24 -9.207309e-24 -1.4705175e-23 -2.6067651e-23 -1.0047989e-24
          3.0894663e-24 1.5998785e-23 6.548403e-23 -4.7694053e-24 -3.440762e-24 1.0998857e-24
          2.0128865e-23 -7.755798e-24 -9.345111e-24 -1.28241804e-23 -2.0966099e-23 -1.5260988e-23
          -2.5277295e-23 -9.5930906e-24 -3.6382612e-24 7.75679e-24 -1.0112726e-23 -1.1437976e-23
          -1.4870807e-23 -1.20615326e-23 -1.781541e-23 -2.582061e-23 -1.0932035e-23 -1.26215244e-23
          -2.4794354e-23 -1.7490225e-23 -2.472155e-23 -2.3030908e-23 2.9200248e-22 2.3374648e-22
          1.1401197e-22 5.2691065e-23 6.9558126e-23 6.6833754e-23 2.9368285e-23 -2.6415433e-23
          -4.6255727e-23 -3.042077e-23 -4.2498676e-23 -6.792959e-23 2.2575793e-22 2.5448115e-22
          2.211237e-22 9.7577796e-23 2.4475462e-23 3.356032e-23 3.226352e-23 -2.0338743e-24
          -5.681169e-23 -7.446756e-23 -3.32418e-23 -4.7264052e-23 -7.7288874e-23 1.2094391e-22
          1.5162848e-22 1.390143e-22 2.765045e-23 -4.9048433e-23 -2.3713206e-24 -9.4435975e-24
          -4.500188e-23 -9.374384e-23 -1.0663068e-22 -3.446816e-23 -4.864962e-23 -8.4752515e-23
          2.3215896e-23 3.459097e-23 7.27226e-23 1.5325568e-22 1.8820703e-23 2.9067915e-23
          6.7120104e-23 1.5158047e-22 7.848569e-24 1.5296852e-23 4.4795773e-23 1.3474081e-22
          -6.4860755e-24 -2.6708369e-24 9.108923e-24 -4.4484967e-24 -1.1568316e-23 -8.774365e-24
          6.627548e-24 1.5151904e-23 2.0268082e-23 3.4202743e-23 5.6314186e-23 -4.136855e-24
          -5.580747e-24 -1.0306812e-23 -2.0548072e-23 3.335159e-23 4.6761232e-23 8.8229384e-23
          1.6592513e-22 5.665703e-24 8.199577e-24 1.5421458e-23 2.68654e-23 -5.5225423e-24
          -7.1313965e-24 -1.2256978e-23 -2.2933452e-23 1.18071226e-23 1.8053416e-23 3.8898132e-23
          8.19502e-23 -1.6824366e-24 -1.445579e-24 -6.5786015e-25 -8.8146e-25 -6.6454084e-24
          -8.396513e-24 -1.387855e-23 -2.479905e-23 -4.251551e-24 -5.2036866e-24 -4.4482395e-24
          -5.349227e-24 -2.6266851e-24 -4.8682796e-24 -5.6269594e-24 -3.2766028e-24 -5.328915e-24
          -3.669021e-24 -5.5822996e-24 -3.7328476e-24 -5.610846e-24 -5.708141e-24 -5.794988e-24
          -1.6111897e-24 5.893089e-24 1.2516573e-23 -1.2674669e-24 6.3765643e-24 1.3226928e-23
          -4.7259636e-25 -1.3839675e-24 7.365799e-24 1.439991e-23 -8.0450175e-25 -1.7097657e-24
          4.812452e-24 8.4706795e-24 1.5260169e-23 -1.3381617e-24 -2.2177211e-24 5.3843042e-24
          9.090442e-24 1.5530554e-23 -1.7342837e-24 -2.5846258e-24 2.1429866e-24 6.332724e-24
          -3.2443017e-25 1.5381511e-24 -3.0842878e-24 -3.9224976e-24 -5.7431184e-24 4.485494e-25
          3.55858e-24 -1.56956775e-24 -5.309004e-25 -4.8396546e-24 -2.919485e-24 -2.360692e-24
          -4.6993623e-24 -8.207649e-24 7.465182e-24 1.5742447e-23 5.050431e-24 1.2063441e-23
          -4.641092e-26 3.4024486e-24 -1.8263558e-24 -1.4909033e-24 1.8675888e-24 -5.3200464e-24
          -6.375648e-24 -2.5658693e-24 -3.5403943e-24 -2.652205e-24 -5.947476e-24 -7.6385575e-24
          -9.661168e-24 3.5064193e-24 6.2479144e-24 1.1209108e-23 -2.2249283e-24 -3.262496e-24
          1.2712426e-23 2.382278e-23 4.980121e-25 1.57565e-24 3.7997272e-24 -3.0702088e-24
          -4.4405036e-24 3.196081e-24 7.691881e-24 -1.8515893e-24 -1.8355896e-24 -5.3881547e-24
          -4.6947156e-24 -5.856977e-24 -5.184503e-24 -5.7990526e-24 -7.352605e-24 -5.1145663e-24
          -6.4969866e-24 -4.9586747e-24 -7.195014e-24 -8.397958e-24 -4.3815417e-24 -6.41362e-24
          -7.531292e-24 -5.1487768e-24 -6.11799e-24 -3.42326e-24 -5.9461724e-24 -9.3720005e-24
          -1.15537996e-23 -3.0276306e-24 -5.270841e-24 -8.347278e-24 -1.02843765e-23 -4.1956845e-24
          -6.669274e-24 -8.264433e-24 -5.313174e-24 -6.6072386e-24 -2.7155328e-24 -3.8743586e-24
          -7.000352e-24 -1.1696602e-23 -1.4932638e-23 -3.458147e-24 -6.236418e-24 -1.0371939e-23
          -1.3214732e-23 -4.98764e-24 -8.255733e-24 -1.047624e-23 -3.960344e-24 -6.556598e-24
          -8.314877e-24 -6.4966695e-24 -1.10586805e-23 -1.4280361e-23 -5.7996012e-24 -9.779872e-24
          -1.25921946e-23 -7.775075e-24 -9.935141e-24 -6.1670795e-24 -7.85276e-24 -5.3461462e-24
          -7.553397e-24 -8.6516206e-24 -5.7941826e-24 -9.381887e-24 -1.3707971e-23 -1.6092994e-23
          -3.3298903e-24 -4.596182e-24 -7.730842e-24 -1.1821913e-23 -1.4220228e-23 -3.7743977e-24
          -6.4848153e-24 -1.0168642e-23 -1.24596186e-23 -4.445345e-24 -6.3550055e-24 -1.1648978e-23
          -2.0028372e-23 -2.5789827e-23 -3.6489392e-24 -5.1976077e-24 -9.507446e-24 -1.6122542e-23
          -2.0785205e-23 -3.0076294e-24 -4.2934015e-24 -7.780864e-24 -1.306652e-23 -1.6729828e-23
          -3.9765764e-24 -5.81079e-24 -1.1162465e-23 -2.0202332e-23 -2.6941443e-23 -3.326088e-24
          -4.7985707e-24 -9.019069e-24 -1.5815019e-23 -2.0760675e-23 -3.9479112e-24 -7.2795856e-24
          -1.2499398e-23 -1.6218911e-23 -3.030482e-24 -2.4571294e-24 -1.4324045e-24 -1.9237466e-24
          -1.4299562e-24 1.2573365e-24 -2.1627006e-24 -1.2422003e-24 -7.023168e-24 -5.6730423e-24
          -4.0586038e-24 -2.904653e-24 -2.1250404e-24 -3.9890803e-24 -3.6918856e-24 -2.9132959e-24
          -2.1651909e-24 2.1250701e-23 1.0882456e-23 4.731223e-24 2.4796732e-23 1.1920865e-23
          4.3386486e-24 3.5631462e-23 1.7202485e-23 5.7984728e-24 2.6930932e-24 5.2171016e-23
          2.381303e-23 7.4184606e-24 2.5741884e-24 6.3772235e-23 2.782742e-23 7.416098e-24
          1.5826668e-24 1.9168039e-23 9.67555e-24 2.2893174e-23 1.0843604e-23 4.0956787e-24
          3.305258e-23 1.4717262e-23 4.484415e-24 2.0428916e-24 5.0386045e-23 2.1531176e-23
          6.1593766e-24 1.9305878e-24 6.2802384e-23 2.5828167e-23 6.2715026e-24 1.0171714e-24
          1.2952669e-23 6.1786844e-24 1.6029925e-23 7.2842635e-24 2.4021242e-23 9.5642995e-24
          2.5932925e-24 3.8813092e-23 1.4131485e-23 3.1504677e-24 4.8283114e-25 5.1247257e-23
          1.7502444e-23 3.312819e-24 -1.3189875e-25 6.868151e-24 1.0196902e-23 1.6775533e-23
          4.723871e-24 2.341229e-23 6.1604755e-24 2.8231403e-24 3.762289e-24 -7.6645795e-25
          7.597037e-23 3.5369538e-23 9.3665605e-24 2.2275138e-24 9.054291e-23 4.4171336e-23
          1.2064087e-23 1.4515635e-24 8.297345e-23 3.6952144e-23 3.3759003e-24 -7.599071e-24
          6.2251885e-23 2.637139e-23 -1.4546668e-23 7.976766e-23 3.333827e-23 7.82696e-24
          1.0407311e-24 1.1101439e-22 4.8306866e-23 1.1547808e-23 5.6080344e-25 1.1759098e-22
          4.740136e-23 4.8017794e-24 -7.468176e-24 1.1018732e-22 3.886682e-23 -2.206775e-24
          -1.4380095e-23 7.0722024e-23 2.4750408e-23 4.3279363e-24 -4.11486e-25 1.289358e-22
          4.2201856e-23 7.76223e-24 -2.7143718e-24 2.0358061e-22 5.776191e-23 6.669724e-24
          -9.257775e-24 2.353967e-22 6.385529e-23 3.1621152e-24 -1.5263114e-23 3.8087684e-23
          8.064897e-24 -8.857755e-26 8.177647e-23 1.8669166e-23 -9.654805e-26 -5.6434245e-24
          2.0650422e-22 2.2613277e-23 -1.328624e-23 1.8495232e-23 1.0464616e-23 -2.5725758e-24
          2.2420807e-23 4.400381e-23 -9.488908e-24 -7.657011e-23 1.7678935e-23 5.6344603e-24
          2.2953483e-23 5.945605e-24 3.4728923e-23 4.8890278e-24 -2.7661039e-24 4.1035942e-23
          -3.7170463e-24 3.135997e-23 -1.2925041e-23 2.2902366e-23 1.4128657e-23 4.470809e-24
          3.0547544e-23 1.849438e-23 4.8689844e-24 5.0857446e-23 2.7047863e-23 2.907621e-24
          -2.9187966e-24 7.03674e-23 3.0299677e-23 -5.468765e-24 2.0601893e-23 -1.5013743e-23
          1.3192705e-23 8.143379e-24 2.501081e-24 1.8235489e-23 1.1028314e-23 3.1712147e-24
          2.8391988e-23 1.3747788e-23 -1.8462694e-25 -3.2312214e-24 3.6154363e-23 1.0861833e-23
          -8.525716e-24 4.1352554e-26 -1.7517221e-23 6.3392724e-24 3.793906e-24 8.817751e-24
          5.2997052e-24 1.7900443e-24 1.10626785e-23 4.353544e-24 -2.0347383e-24 7.7639146e-24
          -3.3346925e-24 -1.0379562e-23 -1.3553766e-23 3.7692417e-24 2.0725869e-24 5.3696914e-24
          3.3191263e-24 5.0471313e-24 1.0804103e-24 -2.4688619e-24 -2.1195547e-24 -7.90065e-24
          -1.04363284e-23 -1.7530807e-23 1.4752783e-24 5.5831557e-25 -1.0063758e-24 3.9431772e-25
          -1.0835946e-24 2.3091402e-23 1.2819427e-23 5.9388995e-24 3.40477e-24 3.0224524e-23
          1.7526815e-23 8.2760044e-24 5.00718e-24 5.058825e-23 2.7668056e-23 1.05365856e-23
          4.7021735e-24 7.562984e-23 3.9130934e-23 1.1213185e-23 1.4589829e-24 2.29182e-23
          1.2113863e-23 5.288101e-24 2.947014e-24 2.8735716e-23 1.5567447e-23 6.666846e-24
          3.62797e-24 4.697378e-23 2.4650641e-23 9.282921e-24 4.081104e-24 7.336767e-23
          3.7495714e-23 1.1923003e-23 3.9437093e-24 2.2030137e-23 1.1400006e-23 4.965043e-24
          2.6303582e-23 1.30160795e-23 4.7220184e-24 2.3577049e-24 4.0115328e-23 2.0289569e-23
          7.6276736e-24 3.6331237e-24 6.0914735e-23 2.827737e-23 8.28258e-24 2.4617154e-24
          -1.1105794e-24 -3.472026e-24 -4.041928e-24 -6.723249e-24 -1.2750511e-23 -1.4286017e-23
          -1.8058397e-24 -4.244625e-24 -6.3294227e-24 -1.337225e-23 -1.3482827e-23 -1.8823244e-23
          -2.0694166e-24 -5.4689798e-24 -1.4355437e-23 -2.0657282e-23 -5.2448297e-24 -1.3518733e-23
          -1.3784199e-23 -6.822517e-24 1.7490863e-24 3.0498118e-24 1.2074958e-24 -1.9122903e-24
          -4.6692918e-24 -7.452268e-24 2.1938236e-24 1.1057478e-24 -8.883933e-25 -3.988526e-25
          -4.061377e-24 1.857268e-24 -4.568225e-25 1.2798411e-23 6.948011e-24 1.7945557e-23
          9.6216876e-24 1.1446059e-23 1.5927777e-23 8.276865e-24 1.07887055e-23 1.3574038e-23
          4.805395e-24 1.7264349e-23 1.1074641e-23 4.080469e-24 1.0769195e-23 7.099792e-24
          5.8455615e-24 4.086207e-24 4.0546808e-24 1.7767838e-23 1.08614046e-23 5.6631666e-24
          3.861031e-24 1.8287613e-23 1.0675104e-23 5.2398303e-24 1.2476017e-23 1.820078e-23
          1.0073512e-23 4.5954765e-24 -4.0990393e-23 -3.074333e-23 -1.7933132e-23 -1.1035748e-23
          -6.617445e-24 -4.8053153e-23 -3.641052e-23 -2.1522118e-23 -1.29462385e-23 -7.9954634e-24
          -6.1980625e-23 -4.7735718e-23 -2.9206833e-23 -1.7952057e-23 -1.29690666e-23 -7.5403156e-23
          -5.8826405e-23 -3.7140682e-23 -2.3773713e-23 -1.8845428e-23 -6.422669e-23 -4.11854e-23
          -2.6914625e-23 -2.1835605e-23 -4.842285e-23 -3.712241e-23 -2.375855e-23 -1.587628e-23
          -1.2919491e-23 -5.665404e-23 -4.3701165e-23 -2.7804242e-23 -1.8375148e-23 -1.4463542e-23
          -7.288321e-23 -5.709208e-23 -3.6712978e-23 -2.4332525e-23 -1.8892941e-23 -4.6186907e-23
          -3.116629e-23 -2.4869957e-23 -5.1037638e-23 -3.4873392e-23 -2.8301953e-23 -6.349158e-23
          -5.1015808e-23 -3.5400133e-23 -2.519388e-23 -2.0853827e-23 -7.4175316e-23 -5.959772e-23
          -4.11549e-23 -2.930398e-23 -2.4572031e-23 -3.7843122e-23 -3.210913e-23 -7.858813e-23
          -6.505881e-23 -4.617772e-23 -3.321875e-23 -2.797589e-23 -5.425229e-23 -3.9269206e-23
          -3.3047952e-23 -7.361744e-23 -6.1574954e-23 -4.375988e-23 -3.128298e-23 -7.4197896e-23
          -5.894846e-23 -3.850526e-23 -2.5555433e-23 -2.1292274e-23 -5.908756e-23 -4.776044e-23
          -3.1848262e-23 -2.1723947e-23 -1.7736591e-23 -4.514926e-23 -3.6834752e-23 -2.5107922e-23
          -1.7146464e-23 -1.3233812e-23 -3.8430747e-23 -3.1480204e-23 -2.1690426e-23 -1.4474143e-23
          -1.0881167e-23 -4.9660605e-23 -3.451101e-23 -2.8562672e-23 -6.397757e-23 -4.5105123e-23
          -3.227304e-23 -2.732492e-23 -6.349107e-23 -5.3948885e-23 -3.9153824e-23 -2.8952054e-23
          -2.4819145e-23 -5.672975e-23 -4.8608587e-23 -3.589675e-23 -2.682983e-23 -2.3064082e-23
          2.3615212e-23 1.548405e-23 2.7551403e-24 -3.3600106e-24 -3.9666044e-24 3.7085112e-23
          2.4797429e-23 6.1680703e-24 -2.692161e-24 -7.7404886e-24 3.915376e-23 2.8479153e-23
          8.050576e-24 -3.0909107e-24 -6.5362897e-24 2.0233776e-23 1.5655631e-23 2.4198367e-24
          -6.9952115e-24 -8.344211e-24 8.88507e-24 6.716733e-24 -2.5160494e-24 -9.8245455e-24
          2.6137756e-23 1.6091835e-23 1.9251612e-24 -4.0689363e-24 -3.9660443e-24 3.9465604e-23
          2.5578734e-23 5.8201254e-24 -2.8955254e-24 -5.1619074e-24 3.903888e-23 2.7783287e-23
          7.023433e-24 -3.9903925e-24 -7.3090945e-24 1.7322735e-23 1.27698894e-23 -1.1232885e-25
          -9.195396e-24 -1.15554144e-23 5.18608e-24 2.989523e-24 -5.7383497e-24 -1.26062876e-23
          3.0039552e-23 1.7238471e-23 1.3195223e-24 -5.0129866e-24 -7.136879e-24 4.2919615e-23
          2.683651e-23 5.3979125e-24 -4.6502987e-24 -7.978762e-24 3.5784883e-23 2.4193826e-23
          3.930077e-24 -7.691113e-24 -1.0914945e-23 8.58519e-24 4.2393113e-24 -6.834706e-24
          -1.5290257e-23 -1.7727909e-23 -4.2924817e-24 -6.68582e-24 -1.3729367e-23 -1.986592e-23
          2.9939524e-23 1.5852655e-23 3.3280634e-25 -7.838109e-24 -8.7902084e-24 4.073091e-23
          2.4538542e-23 3.4738906e-24 -8.1778094e-24 -1.0499128e-23 2.6051022e-23 1.5287441e-23
          -2.4730606e-24 -1.3722502e-23 -1.6873804e-23 -5.4254516e-24 -9.387081e-24 -1.7813836e-23
          -2.4256689e-23 -2.6502375e-23 -1.7631709e-23 -2.0257688e-23 -2.5602825e-23 -2.9943112e-23
          2.7467102e-23 1.3559241e-23 -1.7039975e-24 -9.438881e-24 -1.0933828e-23 3.642681e-23
          2.1001096e-23 7.799099e-25 -1.03219625e-23 -1.3500422e-23 1.7503905e-23 7.748226e-24
          -8.018396e-24 -1.8295104e-23 -2.1575972e-23 -1.5352186e-23 -1.886354e-23 -2.5867317e-23
          -3.1042844e-23 -3.2971073e-23 -2.6300656e-23 -2.8936658e-23 -3.3637954e-23 -3.7108894e-23
          -5.104033e-23 -5.6523935e-23 -5.39831e-23 -4.6069486e-23 -5.853479e-23 -6.426571e-23
          -6.220991e-23 -5.387417e-23 -7.727702e-23 -8.1570874e-23 -7.831889e-23 -6.877774e-23
          -9.684706e-23 -9.8830204e-23 -9.355598e-23 -8.275892e-23 -1.05049066e-22 -1.0614371e-22
          -1.0032087e-22 -8.919004e-23 -7.965852e-23 -7.9194093e-23 -6.8477917e-23 -5.5005365e-23
          -9.1380644e-23 -9.041391e-23 -7.91093e-23 -6.4429034e-23 -1.1512434e-22 -1.1260068e-22
          -9.9120335e-23 -8.2309854e-23 -1.344594e-22 -1.3104248e-22 -1.1650539e-22 -1.405702e-22
          -1.373318e-22 -1.470827e-22 -1.3066263e-22 -9.9358186e-23 -7.358975e-23 -1.682654e-22
          -1.4946185e-22 -1.1529312e-22 -8.6209156e-23 -1.3259714e-22 -9.351075e-23 -1.4287852e-23
          -1.1408392e-23 -8.154761e-24 -4.2950546e-24 -4.0471893e-24 -1.8464533e-23 -1.4358461e-23
          -1.0550726e-23 -6.3120287e-24 -7.6485816e-24 -2.8105312e-23 -2.2023652e-23 -1.455235e-23
          -9.540798e-24 -8.3077135e-24 -3.957727e-23 -3.166608e-23 -2.1076456e-23 -1.4012366e-23
          -1.0608615e-23 -2.289387e-23 -1.7926998e-23 -1.0215838e-23 -5.4489305e-24 -3.8933378e-24
          -2.9103023e-23 -2.2694597e-23 -1.447231e-23 -8.1219044e-24 -7.862565e-24 -4.1325618e-23
          -3.2448108e-23 -2.131028e-23 -1.3403804e-23 -1.20399564e-23 -5.357564e-23 -4.2684576e-23
          -2.808564e-23 -1.8698514e-23 -1.5160367e-23 -3.41152e-23 -2.5930797e-23 -1.4570403e-23
          -8.608342e-24 -4.8571203e-24 -4.117003e-23 -3.161709e-23 -1.861211e-23 -1.0766513e-23
          -7.509132e-24 -5.497732e-23 -4.2799506e-23 -2.6714292e-23 -1.638311e-23 -1.3513339e-23
          -6.8184984e-23 -5.3702407e-23 -3.458125e-23 -2.2455066e-23 -1.8731384e-23 -8.154901e-23
          -8.475718e-23 -8.468214e-23 -7.902871e-23 -5.0726217e-23 -5.4547094e-23 -5.926391e-23
          -6.00452e-23 -3.2720205e-23 -3.5785574e-23 -4.0982902e-23 -4.4167587e-23 -1.1619365e-22
          -1.1620253e-22 -1.0937014e-22 -8.099179e-23 -8.3628224e-23 -8.4357346e-23 -8.0546996e-23
          -5.731107e-23 -6.02993e-23 -6.385944e-23 -6.448319e-23 -4.8263813e-23 -5.1130502e-23
          -5.500013e-23 -5.6803785e-23 2.2491054e-23 7.5079095e-24 -7.401178e-24 -1.3828642e-23
          2.9092982e-23 1.2586243e-23 -7.0102606e-24 -1.641042e-23 1.0466871e-23 -5.32296e-25
          -1.6608509e-23 -2.5603364e-23 -2.1151421e-23 -2.559659e-23 -3.335532e-23 -3.8144997e-23
          4.5222457e-24 -9.973159e-24 -2.1509657e-23 -2.4346658e-23 5.6096786e-24 -1.0291347e-23
          -2.5291496e-23 -2.9764634e-23 -1.21744075e-23 -2.3937107e-23 -3.7232338e-23 -4.1481973e-23
          -3.9701593e-23 -4.5482842e-23 -5.250629e-23 -5.430643e-23 -2.7382425e-23 -3.728811e-23
          -4.1120564e-23 -3.7841153e-23 -3.2175607e-23 -4.2872167e-23 -4.825595e-23 -4.5201528e-23
          -5.0181004e-23 -5.873192e-23 -6.3120857e-23 -5.936554e-23 -7.225289e-23 -7.6982115e-23
          -7.8134805e-23 -7.29584e-23 -1.4778383e-23 -1.17994714e-23 -7.742314e-24 -1.621807e-24
          -1.827873e-23 -1.4355796e-23 -9.740572e-24 -5.509124e-24 -5.9991787e-24 -2.5023198e-23
          -1.8791441e-23 -1.2105337e-23 -8.762925e-24 -8.7270215e-24 -3.456173e-23 -2.5700607e-23
          -1.5120928e-23 -9.962626e-24 -6.675281e-24 -1.5841532e-23 -1.296008e-23 -8.149087e-24
          -4.325647e-24 -2.0297656e-23 -1.6634655e-23 -1.0944972e-23 -6.223651e-24 -4.4093838e-24
          -2.9207487e-23 -2.3044552e-23 -1.5608817e-23 -1.0284188e-23 -9.06797e-24 -4.0882786e-23
          -3.1347086e-23 -2.0435803e-23 -1.3840727e-23 -1.17620526e-23 -1.798977e-23 -1.4579984e-23
          -9.673063e-24 -6.52358e-24 -5.7698494e-24 -2.4061454e-23 -1.9999634e-23 -1.31987576e-23
          -8.807675e-24 -7.402798e-24 -3.700533e-23 -3.0736905e-23 -2.1230093e-23 -1.4499289e-23
          -1.1646837e-23 -5.341313e-23 -4.3196133e-23 -3.0160904e-23 -2.1303471e-23 -1.7362819e-23
          -2.006752e-23 -1.6579868e-23 -1.2448268e-23 -9.601018e-24 -8.374274e-24 -2.7854407e-23
          -2.2670433e-23 -1.6189529e-23 -1.20963134e-23 -1.0575607e-23 -4.4701706e-23 -3.7072354e-23
          -2.5973395e-23 -1.859981e-23 -1.6030982e-23 -6.561808e-23 -5.451739e-23 -3.8623548e-23
          -2.761332e-23 -2.3371065e-23 -1.8400444e-23 -1.5459523e-23 -1.21153005e-23 -9.454047e-24
          -8.177995e-24 -2.5547404e-23 -2.0852967e-23 -1.550271e-23 -1.2112683e-23 -1.05905555e-23
          -4.1734184e-23 -3.4476014e-23 -2.4316686e-23 -1.8106145e-23 -1.5741768e-23 -6.1465934e-23
          -5.143209e-23 -3.6349575e-23 -2.6089937e-23 -2.2295835e-23 -1.0537054e-23 -8.219076e-24
          -1.0970601e-23 -8.788585e-24 -5.334688e-24 -5.6751383e-24 -4.607454e-24 -3.5911287e-24
          -1.2216781e-23 -9.791119e-24 -6.6304674e-24 -4.7011897e-24 -4.4788288e-24 -3.9529485e-24
          -3.2463167e-24 -2.0879075e-24 -7.671763e-24 -6.885189e-24 -5.4323896e-24 -3.8125407e-24
          -2.8143047e-24 -1.3951562e-23 -1.19936495e-23 -9.481504e-24 -7.458098e-24 -6.325018e-24
          -3.2370458e-24 -2.8277167e-24 -7.236057e-24 -6.7217394e-24 -5.0389394e-24 -3.364734e-24
          -1.30828195e-23 -1.15048184e-23 -9.372229e-24 -7.0389104e-24 -5.893516e-24 3.532239e-24
          -2.8885024e-24 -1.2625662e-24 6.1479472e-24 -1.5673883e-24 -3.7294938e-24 -3.59343e-24
          1.1069819e-23 2.997339e-24 -3.094208e-24 -5.9811197e-24 -5.5774324e-24 9.6420765e-24
          8.397959e-25 -4.9545675e-24 -8.237097e-24 -7.116681e-24 -2.5919257e-23 -2.1216196e-23
          -1.682104e-23 -3.384952e-23 -3.0250424e-23 -2.4593786e-23 -1.978889e-23 -3.9924673e-23
          -3.9946966e-23 -3.3569802e-23 -2.7199668e-23 -4.5782265e-23 -5.028925e-23 -4.6252193e-23
          -3.8714397e-23 -2.9885806e-23 -2.4266919e-23 -1.8565054e-23 -3.6414176e-23 -2.897317e-23
          -2.2820905e-23 -5.58778e-23 -5.1728863e-23 -4.109707e-23 -3.2327788e-23 -7.0001504e-23
          -6.9076586e-23 -5.8197614e-23 -4.6145204e-23 -4.0057505e-23 -2.9783295e-23 -2.1687575e-23
          -4.8999366e-23 -3.8000045e-23 -2.821131e-23 -7.6756355e-23 -5.704941e-23 -4.2749748e-23
          -1.2809955e-22 -1.1187993e-22 -8.34129e-23 -6.1824146e-23 -6.640336e-23 -5.3514336e-23
          -3.4166806e-23 -2.5094874e-23 -7.462851e-23 -6.8204e-23 -4.6500125e-23 -3.3572677e-23
          -1.0526104e-22 -7.49523e-23 -5.3174596e-23 -1.6105702e-22 -1.108043e-22 -7.857288e-23
          -4.861707e-23 -3.1642337e-23 -2.2838658e-23 -8.213907e-23 -6.854482e-23 -4.301168e-23
          -3.135413e-23 -1.27003e-22 -1.0601026e-22 -7.2075047e-23 -5.019253e-23 -1.6097332e-22
          -1.0800563e-22 -7.463522e-23 -9.697462e-24 -7.6060336e-24 -4.0345865e-24 -1.9986377e-24
          -8.844172e-24 -1.4928931e-24 -1.2161907e-23 -9.161578e-24 -5.4603216e-24 -1.720016e-23
          -1.3150823e-23 -6.297256e-24 -4.25782e-24 -1.414919e-23 -1.0945731e-23 -7.630963e-24
          -3.931299e-24 -1.9455077e-23 -1.4496042e-23 -9.332633e-24 -7.692705e-24 -6.440285e-24
          -2.7791958e-23 -2.0747356e-23 -1.146331e-23 -7.763902e-24 -1.6303054e-23 -1.26316976e-23
          -1.8169283e-23 -1.3661623e-23 -2.096416e-23 -1.7077348e-23 -1.0729624e-23 -7.176684e-24
          -3.4643518e-23 -3.033977e-23 -2.1413345e-23 -1.5425129e-23 -9.070939e-24 -7.494458e-24
          -5.70847e-24 -4.5179717e-24 -1.6854343e-23 -1.1427632e-23 -7.876528e-24 -4.7529633e-23
          -3.7292557e-23 -2.4498301e-23 -1.7109312e-23 -7.2013235e-24 -5.7413593e-24 -4.525534e-24
          -4.0681797e-24 -1.6835477e-23 -1.4364512e-23 -1.0137319e-23 -7.363967e-24 -4.249708e-23
          -3.248423e-23 -2.2852273e-23 -1.5381907e-23 7.9479085e-24 -2.2972253e-24 -8.577539e-24
          -1.1086911e-23 -1.4077198e-23 -1.2176133e-23 -2.4426827e-24 -1.3186268e-23 -1.8609857e-23